
.Version 8.6.3 of ABINIT 
.(sequential version, prepared for a x86_64_cygwin_gnu6.4 computer) 

.Copyright (C) 1998-2017 ABINIT group . 
 ABINIT comes with ABSOLUTELY NO WARRANTY.
 It is free software, and you are welcome to redistribute it
 under certain conditions (GNU General Public License,
 see ~abinit/COPYING or http://www.gnu.org/copyleft/gpl.txt).

 ABINIT is a project of the Universite Catholique de Louvain,
 Corning Inc. and other collaborators, see ~abinit/doc/developers/contributors.txt .
 Please read ~abinit/doc/users/acknowledgments.html for suggested
 acknowledgments of the ABINIT effort.
 For more information, see https://www.abinit.org .

.Starting date : Tue 19 Jun 2018.
- ( at 23h33 )
  
- input  file    -> C6H6_1.in
- output file    -> C6H6_1.out
- root for input  files -> C6H6_1i
- root for output files -> C6H6_1o


 DATASET    1 : space group Pm (#  6); Bravais mP (primitive monocl.)
================================================================================
 Values of the parameters that define the memory need for DATASET  1.
     intxc =       0    ionmov =       0      iscf =       7    lmnmax =       1
     lnmax =       1     mgfft =     320  mpssoang =       2    mqgrid =   15313
     natom =      24  nloc_mem =       1    nspden =       1   nspinor =       1
    nsppol =       1      nsym =       2    n1xccc =    2501    ntypat =       2
    occopt =       1   xclevel =       1
-    mband =          48        mffmem =           1         mkmem =           1
       mpw =      150519          nfft =     5000000          nkpt =           1
================================================================================
P This job should need less than                    1534.350 Mbytes of memory.
  Rough estimation (10% accuracy) of disk space for files :
_ WF disk file :    110.245 Mbytes ; DEN or POT disk file :     38.149 Mbytes.
================================================================================


 DATASET    2 : space group Pm (#  6); Bravais mP (primitive monocl.)
================================================================================
 Values of the parameters that define the memory need for DATASET  2.
     intxc =       0    ionmov =       0      iscf =      -1    lmnmax =       1
     lnmax =       1     mgfft =     320  mpssoang =       2    mqgrid =   30625
     natom =      24  nloc_mem =       1    nspden =       1   nspinor =       1
    nsppol =       1      nsym =       2    n1xccc =    2501    ntypat =       2
    occopt =       1   xclevel =       1
-    mband =          96        mffmem =           1         mkmem =           1
       mpw =      150519          nfft =     5000000          nkpt =           1
 For the susceptibility and dielectric matrices, or tddft :
   mgfft =       320  nbnd_in_blk=    12    nfft =   5000000     npw =   2405987
================================================================================
P This job should need less than                    4966.818 Mbytes of memory.
  Rough estimation (10% accuracy) of disk space for files :
_ WF disk file :    220.489 Mbytes ; DEN or POT disk file :     38.149 Mbytes.
================================================================================

--------------------------------------------------------------------------------
------------- Echo of variables that govern the present computation ------------
--------------------------------------------------------------------------------
-
- outvars: echo of selected default values                                      
-   iomode0 =  0 , fftalg0 =112 , wfoptalg0 =  0
-
- outvars: echo of global parameters not present in the input file              
-  max_nthreads =    0
-
 -outvars: echo values of preprocessed input variables --------
            acell      2.2676713595E+01  2.2676713595E+01  5.6691783987E+01 Bohr
              amu      1.00794000E+00  1.20110000E+01
        boxcenter      0.00000000E+00  0.00000000E+00  0.00000000E+00
           diecut1     2.20000000E+00 Hartree
           diecut2     1.44000000E+02 Hartree
           diemac      1.00000000E+00
           diemix      5.00000000E-01
             ecut      3.60000000E+01 Hartree
-          fftalg         112
           getden1          0
           getden2          1
           getwfk1          0
           getwfk2          1
             iscf1          7
             iscf2         -1
           istwfk        2
           jdtset        1    2
           kptopt           0
P           mkmem           1
            natom          24
            nband1         48
            nband2         96
           ndtset           2
            ngfft         125     125     320
             nkpt           1
            nstep          25
             nsym           2
           ntypat           2
              occ1     2.000000  2.000000  2.000000  2.000000  2.000000  2.000000
                       2.000000  2.000000  2.000000  2.000000  2.000000  2.000000
                       2.000000  2.000000  2.000000  2.000000  2.000000  2.000000
                       2.000000  2.000000  2.000000  2.000000  2.000000  2.000000
                       2.000000  2.000000  2.000000  2.000000  2.000000  2.000000
                       0.000000  0.000000  0.000000  0.000000  0.000000  0.000000
                       0.000000  0.000000  0.000000  0.000000  0.000000  0.000000
                       0.000000  0.000000  0.000000  0.000000  0.000000  0.000000
              occ2     2.000000  2.000000  2.000000  2.000000  2.000000  2.000000
                       2.000000  2.000000  2.000000  2.000000  2.000000  2.000000
                       2.000000  2.000000  2.000000  2.000000  2.000000  2.000000
                       2.000000  2.000000  2.000000  2.000000  2.000000  2.000000
                       2.000000  2.000000  2.000000  2.000000  2.000000  2.000000
                       0.000000  0.000000  0.000000  0.000000  0.000000  0.000000
                       0.000000  0.000000  0.000000  0.000000  0.000000  0.000000
                       0.000000  0.000000  0.000000  0.000000  0.000000  0.000000
                       0.000000  0.000000  0.000000  0.000000  0.000000  0.000000
                       0.000000  0.000000  0.000000  0.000000  0.000000  0.000000
                       0.000000  0.000000  0.000000  0.000000  0.000000  0.000000
                       0.000000  0.000000  0.000000  0.000000  0.000000  0.000000
                       0.000000  0.000000  0.000000  0.000000  0.000000  0.000000
                       0.000000  0.000000  0.000000  0.000000  0.000000  0.000000
                       0.000000  0.000000  0.000000  0.000000  0.000000  0.000000
                       0.000000  0.000000  0.000000  0.000000  0.000000  0.000000
          spgroup           6
           symrel      1  0  0   0  1  0   0  0  1       1  0  0   0  1  0   0  0 -1
            tnons      0.0000000  0.0000000  0.0000000     0.0000000  0.0000000  0.0977678
           tolwfr1     1.00000000E-12
           tolwfr2     1.00000000E-06
            typat      2  2  2  2  2  2  1  1  1  1  1  1  2  2  2  2  2  2  1  1
                       1  1  1  1
           xangst      5.6534760705E+00  6.3678124340E+00 -3.8745786937E-01
                       6.8814223697E+00  8.4950189078E+00 -3.8701538675E-01
                       8.1091310940E+00  7.7857871935E+00 -3.8746066533E-01
                       8.1090322934E+00  6.3676221882E+00 -3.8749212529E-01
                       6.8812043032E+00  5.6585882536E+00 -3.8708304489E-01
                       5.6536021299E+00  7.7859784687E+00 -3.8741567712E-01
                       6.8814681126E+00  9.6089147065E+00 -3.8264376700E-01
                       9.0738026872E+00  8.3429736555E+00 -3.8389113392E-01
                       9.0736003889E+00  5.8104125391E+00 -3.8392622661E-01
                       6.8811103524E+00  4.5446861701E+00 -3.8274031285E-01
                       4.6887780215E+00  5.8107378018E+00 -3.8389202293E-01
                       4.6889686957E+00  8.3432984650E+00 -3.8382359438E-01
                       5.6534760705E+00  6.3678124340E+00  3.3204921676E+00
                       6.8814223697E+00  8.4950189078E+00  3.3200496849E+00
                       8.1091310940E+00  7.7857871935E+00  3.3204949635E+00
                       8.1090322934E+00  6.3676221882E+00  3.3205264235E+00
                       6.8812043032E+00  5.6585882536E+00  3.3201173431E+00
                       5.6536021299E+00  7.7859784687E+00  3.3204499753E+00
                       6.8814681126E+00  9.6089147065E+00  3.3156780652E+00
                       9.0738026872E+00  8.3429736555E+00  3.3169254321E+00
                       9.0736003889E+00  5.8104125391E+00  3.3169605248E+00
                       6.8811103524E+00  4.5446861701E+00  3.3157746110E+00
                       4.6887780215E+00  5.8107378018E+00  3.3169263211E+00
                       4.6889686957E+00  8.3432984650E+00  3.3168578926E+00
            xcart      1.0683521472E+01  1.2033421566E+01 -7.3218926114E-01
                       1.3004003683E+01  1.6053259229E+01 -7.3135309017E-01
                       1.5324036943E+01  1.4713005525E+01 -7.3219454474E-01
                       1.5323850237E+01  1.2033062053E+01 -7.3225399545E-01
                       1.3003591597E+01  1.0693182098E+01 -7.3148094553E-01
                       1.0683759690E+01  1.4713366982E+01 -7.3210952934E-01
                       1.3004090125E+01  1.8158217230E+01 -7.2309192609E-01
                       1.7147002063E+01  1.5765935343E+01 -7.2544910795E-01
                       1.7146619774E+01  1.0980088418E+01 -7.2551542353E-01
                       1.3003414056E+01  8.5882122214E+00 -7.2327437130E-01
                       8.8605063585E+00  1.0980703075E+01 -7.2545078794E-01
                       8.8608666805E+00  1.5766549144E+01 -7.2532147672E-01
                       1.0683521472E+01  1.2033421566E+01  6.2748208232E+00
                       1.3004003683E+01  1.6053259229E+01  6.2739846520E+00
                       1.5324036943E+01  1.4713005525E+01  6.2748261066E+00
                       1.5323850237E+01  1.2033062053E+01  6.2748855574E+00
                       1.3003591597E+01  1.0693182098E+01  6.2741125075E+00
                       1.0683759690E+01  1.4713366982E+01  6.2747410913E+00
                       1.3004090125E+01  1.8158217230E+01  6.2657234880E+00
                       1.7147002063E+01  1.5765935343E+01  6.2680806699E+00
                       1.7146619774E+01  1.0980088418E+01  6.2681469855E+00
                       1.3003414056E+01  8.5882122214E+00  6.2659059332E+00
                       8.8605063585E+00  1.0980703075E+01  6.2680823498E+00
                       8.8608666805E+00  1.5766549144E+01  6.2679530387E+00
             xred      4.7112300588E-01  5.3065103617E-01 -1.2915262312E-02
                       5.7345186414E-01  7.0791824232E-01 -1.2900512892E-02
                       6.7576092450E-01  6.4881559946E-01 -1.2915355511E-02
                       6.7575269112E-01  5.3063518235E-01 -1.2916404176E-02
                       5.7343369193E-01  4.7154902113E-01 -1.2902768163E-02
                       4.7113351082E-01  6.4883153906E-01 -1.2913855904E-02
                       5.7345567605E-01  8.0074289221E-01 -1.2754792233E-02
                       7.5615022393E-01  6.9524780462E-01 -1.2796371131E-02
                       7.5613336574E-01  4.8420104492E-01 -1.2797540887E-02
                       5.7342586270E-01  3.7872384751E-01 -1.2758010428E-02
                       3.9073150179E-01  4.8422815015E-01 -1.2796400764E-02
                       3.9074739131E-01  6.9527487208E-01 -1.2794119813E-02
                       4.7112300588E-01  5.3065103617E-01  1.1068307225E-01
                       5.7345186414E-01  7.0791824232E-01  1.1066832283E-01
                       6.7576092450E-01  6.4881559946E-01  1.1068316545E-01
                       6.7575269112E-01  5.3063518235E-01  1.1068421412E-01
                       5.7343369193E-01  4.7154902113E-01  1.1067057810E-01
                       4.7113351082E-01  6.4883153906E-01  1.1068166584E-01
                       5.7345567605E-01  8.0074289221E-01  1.1052260217E-01
                       7.5615022393E-01  6.9524780462E-01  1.1056418107E-01
                       7.5613336574E-01  4.8420104492E-01  1.1056535083E-01
                       5.7342586270E-01  3.7872384751E-01  1.1052582037E-01
                       3.9073150179E-01  4.8422815015E-01  1.1056421070E-01
                       3.9074739131E-01  6.9527487208E-01  1.1056192975E-01
            znucl        1.00000    6.00000

================================================================================

 chkinp: Checking input parameters for consistency, jdtset=   1.

 chkinp: WARNING -
   Chksymbreak=1 . Found potentially symmetry-breaking value of tnons, 
   which is neither a rational fraction in 1/8th nor in 1/12th :
   for the symmetry number    2
   symrel is   1  0  0  0  1  0  0  0 -1
   tnons is     0.000000E+00    0.000000E+00    9.776781E-02
   Please, read the description of the input variable chksymbreak,
   then, if you feel confident, you might switch it to zero, or consult with the forum.

 chkinp: Checking input parameters for consistency, jdtset=   2.

 chkinp: WARNING -
   Chksymbreak=1 . Found potentially symmetry-breaking value of tnons, 
   which is neither a rational fraction in 1/8th nor in 1/12th :
   for the symmetry number    2
   symrel is   1  0  0  0  1  0  0  0 -1
   tnons is     0.000000E+00    0.000000E+00    9.776781E-02
   Please, read the description of the input variable chksymbreak,
   then, if you feel confident, you might switch it to zero, or consult with the forum.

================================================================================
== DATASET  1 ==================================================================
-   nproc =    1

 Exchange-correlation functional for the present dataset will be:
  LDA: new Teter (4/93) with spin-polarized option - ixc=1
 Citation for XC functional:
  S. Goedecker, M. Teter, J. Huetter, PRB 54, 1703 (1996)

 Real(R)+Recip(G) space primitive vectors, cartesian coordinates (Bohr,Bohr^-1):
 R(1)= 22.6767136  0.0000000  0.0000000  G(1)=  0.0440981  0.0000000  0.0000000
 R(2)=  0.0000000 22.6767136  0.0000000  G(2)=  0.0000000  0.0440981  0.0000000
 R(3)=  0.0000000  0.0000000 56.6917840  G(3)=  0.0000000  0.0000000  0.0176392
 Unit cell volume ucvol=  2.9152805E+04 bohr^3
 Angles (23,13,12)=  9.00000000E+01  9.00000000E+01  9.00000000E+01 degrees

 getcut: wavevector=  0.0000  0.0000  0.0000  ngfft= 125 125 320
         ecut(hartree)=     36.000   => boxcut(ratio)=   2.02453

--- Pseudopotential description ------------------------------------------------
- pspini: atom type   1  psp file is C:\cygwin64\home\Susa\abinit-8.6.3\tests\Psps_for_tests\1h.pspnc
- pspatm: opening atomic psp file    C:\cygwin64\home\Susa\abinit-8.6.3\tests\Psps_for_tests\1h.pspnc
-  Troullier-Martins psp for element  H         Thu Oct 27 17:28:54 EDT 1994
-  1.00000   1.00000    940714                znucl, zion, pspdat
    1    1    0    0      2001   0.00000      pspcod,pspxc,lmax,lloc,mmax,r2well
    0   7.740  11.990    0   1.5855604        l,e99.0,e99.9,nproj,rcpsp
   0.00000000   0.00000000   0.00000000   0.00000000     rms, ekb1, ekb2, epsatm
    0.00000000000000    0.00000000000000    0.00000000000000   rchrg,fchrg,qchrg
 Note: local psp for atom with Z=  1.0
  pspatm : epsatm=    0.04198703
         --- l  ekb(1:nproj) -->
 pspatm: atomic psp has been read  and splines computed

- pspini: atom type   2  psp file is C:\cygwin64\home\Susa\abinit-8.6.3\tests\Psps_for_tests\6c.pspnc
- pspatm: opening atomic psp file    C:\cygwin64\home\Susa\abinit-8.6.3\tests\Psps_for_tests\6c.pspnc
-  Troullier-Martins psp for element  C         Thu Oct 27 17:29:33 EDT 1994
-  6.00000   4.00000    940714                znucl, zion, pspdat
    1    1    1    1      2001   0.00000      pspcod,pspxc,lmax,lloc,mmax,r2well
    0  10.372  24.987    1   1.4850707        l,e99.0,e99.9,nproj,rcpsp
   0.00000000   0.00000000   0.00000000   0.00000000     rms, ekb1, ekb2, epsatm
    1  15.431  21.987    0   1.4850707        l,e99.0,e99.9,nproj,rcpsp
   0.00000000   0.00000000   0.00000000   0.00000000     rms, ekb1, ekb2, epsatm
    0.83985002509544    0.99012430797080    0.51184907750884   rchrg,fchrg,qchrg
  pspatm : epsatm=    0.92590353
         --- l  ekb(1:nproj) -->
             0    4.921466
 pspatm: atomic psp has been read  and splines computed

   6.96881203E+02                                ecore*ucvol(ha*bohr**3)
--------------------------------------------------------------------------------

_setup2: Arith. and geom. avg. npw (full set) are  301037.000  301037.000

================================================================================

     iter   Etot(hartree)      deltaE(h)  residm     vres2
 ETOT  1  -78.698870176242    -7.870E+01 1.014E-01 2.899E+03
 ETOT  2  -79.212450620491    -5.136E-01 2.099E-03 3.281E+02
 ETOT  3  -79.219787587015    -7.337E-03 3.127E-03 1.085E+02
 ETOT  4  -79.219924868922    -1.373E-04 1.664E-04 4.962E+01
 ETOT  5  -79.221159811755    -1.235E-03 5.302E-05 6.221E+00
 ETOT  6  -79.221251619086    -9.181E-05 5.529E-06 1.635E+00
 ETOT  7  -79.221295337864    -4.372E-05 6.704E-07 5.722E-02
 ETOT  8  -79.221296469240    -1.131E-06 5.537E-08 5.610E-03
 ETOT  9  -79.221296505739    -3.650E-08 1.528E-08 3.320E-04
 ETOT 10  -79.221296519418    -1.368E-08 3.550E-09 6.623E-05
 ETOT 11  -79.221296520731    -1.313E-09 1.038E-09 6.492E-06
 ETOT 12  -79.221296521181    -4.496E-10 3.841E-10 8.237E-07
 ETOT 13  -79.221296521174     6.096E-12 1.389E-10 6.645E-08
 ETOT 14  -79.221296521151     2.349E-11 5.608E-11 1.195E-08
 ETOT 15  -79.221296521181    -3.011E-11 2.005E-11 1.412E-09
 ETOT 16  -79.221296521173     7.887E-12 8.123E-12 4.509E-11
 ETOT 17  -79.221296521195    -2.170E-11 2.927E-12 5.957E-12
 ETOT 18  -79.221296521204    -9.479E-12 1.184E-12 4.889E-13
 ETOT 19  -79.221296521208    -3.439E-12 9.519E-13 6.551E-14

 At SCF step   19   max residual=  9.52E-13 < tolwfr=  1.00E-12 =>converged.

 Cartesian components of stress tensor (hartree/bohr^3)
  sigma(1 1)=  2.02898750E-05  sigma(3 2)=  0.00000000E+00
  sigma(2 2)=  2.04708618E-05  sigma(3 1)=  0.00000000E+00
  sigma(3 3)=  1.49209655E-08  sigma(2 1)= -2.06674508E-10

 Integrated electronic density in atomic spheres:
 ------------------------------------------------
 Atom  Sphere_radius  Integrated_density
    1        2.00000          4.55954923
    2        2.00000          4.57281862
    3        2.00000          4.55347923
    4        2.00000          4.57424412
    5        2.00000          4.55562567
    6        2.00000          4.55073249
    7        2.00000          1.96802113
    8        2.00000          1.96926319
    9        2.00000          1.97626881
   10        2.00000          1.96714591
   11        2.00000          1.96364316
   12        2.00000          1.96446882
   13        2.00000          4.56173197
   14        2.00000          4.57135864
   15        2.00000          4.55689396
   16        2.00000          4.56786222
   17        2.00000          4.55261975
   18        2.00000          4.54596420
   19        2.00000          1.96197325
   20        2.00000          1.97169901
   21        2.00000          1.97204073
   22        2.00000          1.97119821
   23        2.00000          1.96014051
   24        2.00000          1.96817309
================================================================================

 ----iterations are completed or convergence reached----

 Mean square residual over all n,k,spin=   3.4781E-13; max=  9.5190E-13
 reduced coordinates (array xred) for   24 atoms
       0.471123005875      0.530651036167     -0.012915262312
       0.573451864142      0.707918242317     -0.012900512890
       0.675760924500      0.648815599458     -0.012915355510
       0.675752691117      0.530635182350     -0.012916404176
       0.573433691933      0.471549021133     -0.012902768163
       0.471133510825      0.648831539058     -0.012913855903
       0.573455676050      0.800742892208     -0.012754792233
       0.756150223933      0.695247804625     -0.012796371130
       0.756133365742      0.484201044925     -0.012797540886
       0.573425862700      0.378723847508     -0.012758010427
       0.390731501792      0.484228150150     -0.012796400763
       0.390747391308      0.695274872083     -0.012794119813
       0.471123005875      0.530651036167      0.110683072253
       0.573451864142      0.707918242317      0.110668322831
       0.675760924500      0.648815599458      0.110683165451
       0.675752691117      0.530635182350      0.110684214117
       0.573433691933      0.471549021133      0.110670578104
       0.471133510825      0.648831539058      0.110681665844
       0.573455676050      0.800742892208      0.110522602174
       0.756150223933      0.695247804625      0.110564181071
       0.756133365742      0.484201044925      0.110565350827
       0.573425862700      0.378723847508      0.110525820368
       0.390731501792      0.484228150150      0.110564210704
       0.390747391308      0.695274872083      0.110561929753
 rms dE/dt=  1.7256E-01; max dE/dt=  3.0844E-01; dE/dt below (all hartree)
    1      -0.262643753318     -0.155391665714      0.007019729494
    2       0.000170374286      0.308438539344      0.009385308444
    3       0.262225291590      0.154877076411      0.007035926627
    4       0.262932287470     -0.155672694969      0.006931076408
    5       0.000132715174     -0.308302878925      0.009273019233
    6      -0.261804298260      0.154935320562      0.007169257251
    7      -0.000076487558      0.290612656521      0.002651298300
    8       0.252297665112      0.147067984595      0.000853503477
    9       0.251612490713     -0.146440976112      0.000888667167
   10      -0.000043934104     -0.290672985916      0.002688311476
   11      -0.252119496892     -0.146650534193      0.000831471457
   12      -0.252676699832      0.147225255622      0.000847668899
   13      -0.262643753318     -0.155391665714     -0.007019729494
   14       0.000170374286      0.308438539344     -0.009385308444
   15       0.262225291590      0.154877076411     -0.007035926627
   16       0.262932287470     -0.155672694969     -0.006931076408
   17       0.000132715174     -0.308302878925     -0.009273019233
   18      -0.261804298260      0.154935320562     -0.007169257251
   19      -0.000076487558      0.290612656521     -0.002651298300
   20       0.252297665112      0.147067984595     -0.000853503477
   21       0.251612490713     -0.146440976112     -0.000888667167
   22      -0.000043934104     -0.290672985916     -0.002688311476
   23      -0.252119496892     -0.146650534193     -0.000831471457
   24      -0.252676699832      0.147225255622     -0.000847668899

 cartesian coordinates (angstrom) at end:
    1      5.65347607050000     6.36781243400000    -0.38745786937000
    2      6.88142236970000     8.49501890780000    -0.38701538671000
    3      8.10913109400000     7.78578719350000    -0.38746066530000
    4      8.10903229340000     6.36762218820000    -0.38749212528000
    5      6.88120430320000     5.65858825360000    -0.38708304488000
    6      5.65360212990000     7.78597846870000    -0.38741567709500
    7      6.88146811260000     9.60891470650000    -0.38264376698500
    8      9.07380268720000     8.34297365550000    -0.38389113389500
    9      9.07360038890000     5.81041253910000    -0.38392622659000
   10      6.88111035240000     4.54468617010000    -0.38274031281000
   11      4.68877802150000     5.81073780180000    -0.38389202290000
   12      4.68896869570000     8.34329846500000    -0.38382359437500
   13      5.65347607050000     6.36781243400000     3.32049216760000
   14      6.88142236970000     8.49501890780000     3.32004968494000
   15      8.10913109400000     7.78578719350000     3.32049496353000
   16      8.10903229340000     6.36762218820000     3.32052642351000
   17      6.88120430320000     5.65858825360000     3.32011734311000
   18      5.65360212990000     7.78597846870000     3.32044997532500
   19      6.88146811260000     9.60891470650000     3.31567806521500
   20      9.07380268720000     8.34297365550000     3.31692543212500
   21      9.07360038890000     5.81041253910000     3.31696052482000
   22      6.88111035240000     4.54468617010000     3.31577461104000
   23      4.68877802150000     5.81073780180000     3.31692632113000
   24      4.68896869570000     8.34329846500000     3.31685789260500

 cartesian forces (hartree/bohr) at end:
    1      0.01158211330260     0.00685256955339    -0.00012382269528
    2     -0.00000749056605    -0.01360146154429    -0.00016554971080
    3     -0.01156361470239    -0.00682969268581    -0.00012410840041
    4     -0.01159479187791     0.00686496240979    -0.00012225892220
    5     -0.00000582987075     0.01359566363415    -0.00016356901444
    6      0.01154509492890    -0.00683226114227    -0.00012646025133
    7      0.00000339557242    -0.01281537396825    -0.00004676688779
    8     -0.01112582523012    -0.00648532656840    -0.00001505515292
    9     -0.01109561034044     0.00645786114186    -0.00001567541369
   10      0.00000196002691     0.01281821883664    -0.00004741977209
   11      0.01111801358273     0.00646710225519    -0.00001466652482
   12      0.01114258517413    -0.00649226192200    -0.00001495223540
   13      0.01158211330260     0.00685256955339     0.00012382269528
   14     -0.00000749056605    -0.01360146154429     0.00016554971080
   15     -0.01156361470239    -0.00682969268581     0.00012410840041
   16     -0.01159479187791     0.00686496240979     0.00012225892220
   17     -0.00000582987075     0.01359566363415     0.00016356901444
   18      0.01154509492890    -0.00683226114227     0.00012646025133
   19      0.00000339557242    -0.01281537396825     0.00004676688779
   20     -0.01112582523012    -0.00648532656840     0.00001505515292
   21     -0.01109561034044     0.00645786114186     0.00001567541369
   22      0.00000196002691     0.01281821883664     0.00004741977209
   23      0.01111801358273     0.00646710225519     0.00001466652482
   24      0.01114258517413    -0.00649226192200     0.00001495223540
 frms,max,avg= 7.6083010E-03 1.3601462E-02  -2.262E-08 -9.223E-08  0.000E+00 h/b

 cartesian forces (eV/Angstrom) at end:
    1      0.59557616214564     0.35237326460355    -0.00636721846151
    2     -0.00038518036074    -0.69941521503702    -0.00851290769026
    3     -0.59462492595706    -0.35119688887331    -0.00638191000841
    4     -0.59622812064654     0.35301053084854    -0.00628680602293
    5     -0.00029978398236     0.69911707453539    -0.00841105619675
    6      0.59367260099395    -0.35132896420382    -0.00650284703528
    7      0.00017460733930    -0.65899297002716    -0.00240484985911
    8     -0.57211288804911    -0.33348887262241    -0.00077416702498
    9     -0.57055917608257     0.33207654372320    -0.00080606211338
   10      0.00010078862774     0.65913925902958    -0.00243842251719
   11      0.57171119702304     0.33255174083694    -0.00075418296608
   12      0.57297471894870    -0.33384550281349    -0.00076887479342
   13      0.59557616214564     0.35237326460355     0.00636721846151
   14     -0.00038518036074    -0.69941521503702     0.00851290769026
   15     -0.59462492595706    -0.35119688887331     0.00638191000841
   16     -0.59622812064654     0.35301053084854     0.00628680602293
   17     -0.00029978398236     0.69911707453539     0.00841105619675
   18      0.59367260099395    -0.35132896420382     0.00650284703528
   19      0.00017460733930    -0.65899297002716     0.00240484985911
   20     -0.57211288804911    -0.33348887262241     0.00077416702498
   21     -0.57055917608257     0.33207654372320     0.00080606211338
   22      0.00010078862774     0.65913925902958     0.00243842251719
   23      0.57171119702304     0.33255174083694     0.00075418296608
   24      0.57297471894870    -0.33384550281349     0.00076887479342
 frms,max,avg= 3.9123454E-01 6.9941522E-01  -1.163E-06 -4.743E-06  0.000E+00 e/A
 length scales= 22.676713594628 22.676713594628 56.691783986569 bohr
              = 12.000000000000 12.000000000000 30.000000000000 angstroms
 prteigrs : about to open file C6H6_1o_DS1_EIG
 Fermi (or HOMO) energy (hartree) =  -0.21376   Average Vxc (hartree)=  -0.02586
 Eigenvalues (hartree) for nkpt=   1  k points:
 kpt#   1, nband= 48, wtk=  1.00000, kpt=  0.0000  0.0000  0.0000 (reduced coord)
  -0.75536   -0.75285   -0.65606   -0.65592   -0.65369   -0.65355   -0.52680   -0.52674
  -0.52479   -0.52473   -0.45667   -0.45440   -0.39572   -0.39354   -0.38847   -0.38756
  -0.36251   -0.36235   -0.36059   -0.36044   -0.33155   -0.30929   -0.29213   -0.29204
  -0.29066   -0.29057   -0.23417   -0.23407   -0.21385   -0.21376   -0.05509   -0.05507
  -0.03215   -0.03213   -0.02510   -0.00254    0.01012    0.01044    0.01220    0.01259
   0.02285    0.02312    0.03341    0.03363    0.03367    0.03806    0.03837    0.04463

--------------------------------------------------------------------------------
 Components of total free energy (in Hartree) :

    Kinetic energy  =  5.48120039378001E+01
    Hartree energy  =  2.67456044351059E+02
    XC energy       = -2.92544176351859E+01
    Ewald energy    =  2.10341702137264E+02
    PspCore energy  =  2.39044302356295E-02
    Loc. psp. energy= -5.90762254821378E+02
    NL   psp  energy=  8.16172107899727E+00
    >>>>>>>>> Etotal= -7.92212965212078E+01

 Other information on the energy :
    Total energy(eV)= -2.15572110952547E+03 ; Band energy (Ha)=  -2.5709663219E+01
--------------------------------------------------------------------------------

 Cartesian components of stress tensor (hartree/bohr^3)
  sigma(1 1)=  2.02898750E-05  sigma(3 2)=  0.00000000E+00
  sigma(2 2)=  2.04708618E-05  sigma(3 1)=  0.00000000E+00
  sigma(3 3)=  1.49209655E-08  sigma(2 1)= -2.06674508E-10

-Cartesian components of stress tensor (GPa)         [Pressure= -3.9989E-01 GPa]
- sigma(1 1)=  5.96948630E-01  sigma(3 2)=  0.00000000E+00
- sigma(2 2)=  6.02273447E-01  sigma(3 1)=  0.00000000E+00
- sigma(3 3)=  4.38989886E-04  sigma(2 1)= -6.08057292E-06

================================================================================
== DATASET  2 ==================================================================
-   nproc =    1

 mkfilename : getwfk/=0, take file _WFK from output of DATASET   1.

 mkfilename : getden/=0, take file _DEN from output of DATASET   1.

 Exchange-correlation functional for the present dataset will be:
  LDA: new Teter (4/93) with spin-polarized option - ixc=1
 Citation for XC functional:
  S. Goedecker, M. Teter, J. Huetter, PRB 54, 1703 (1996)

 Real(R)+Recip(G) space primitive vectors, cartesian coordinates (Bohr,Bohr^-1):
 R(1)= 22.6767136  0.0000000  0.0000000  G(1)=  0.0440981  0.0000000  0.0000000
 R(2)=  0.0000000 22.6767136  0.0000000  G(2)=  0.0000000  0.0440981  0.0000000
 R(3)=  0.0000000  0.0000000 56.6917840  G(3)=  0.0000000  0.0000000  0.0176392
 Unit cell volume ucvol=  2.9152805E+04 bohr^3
 Angles (23,13,12)=  9.00000000E+01  9.00000000E+01  9.00000000E+01 degrees

 getcut: wavevector=  0.0000  0.0000  0.0000  ngfft= 125 125 320
         ecut(hartree)=     36.000   => boxcut(ratio)=   2.02453
--------------------------------------------------------------------------------

-inwffil : will read wavefunctions from disk file C6H6_1o_DS1_WFK

================================================================================
 prteigrs : about to open file C6H6_1o_DS2_EIG
 Non-SCF case, kpt    1 (  0.00000  0.00000  0.00000), residuals and eigenvalues=
  1.76E-13  1.87E-13  1.65E-13  2.15E-13  1.63E-13  2.09E-13  1.85E-13  1.98E-13
  1.81E-13  1.96E-13  1.81E-13  1.80E-13  1.88E-13  1.93E-13  1.84E-13  1.85E-13
  1.65E-13  2.08E-13  1.65E-13  2.09E-13  1.52E-13  1.62E-13  2.04E-13  1.77E-13
  2.05E-13  1.76E-13  1.58E-13  1.35E-13  1.54E-13  1.35E-13  1.59E-13  3.68E-13
  1.62E-13  4.14E-13  7.28E-13  8.73E-13  5.64E-13  5.00E-13  6.56E-13  6.74E-13
  5.66E-13  1.08E-12  1.17E-12  8.38E-13  1.09E-12  8.94E-13  1.11E-12  9.55E-13
  8.78E-07  8.39E-07  8.66E-07  7.09E-07  6.24E-07  3.82E-07  5.27E-07  5.08E-07
  2.76E-07  4.45E-07  5.43E-07  6.14E-07  7.79E-07  6.70E-07  4.17E-07  9.36E-07
  2.26E-07  7.10E-07  4.14E-07  8.32E-07  8.80E-07  6.23E-07  4.97E-07  8.40E-07
  5.94E-07  9.32E-07  4.42E-07  8.32E-07  8.84E-07  6.71E-07  3.96E-07  4.67E-07
  8.54E-07  3.16E-07  7.61E-07  6.51E-07  8.41E-07  7.31E-07  7.53E-07  5.58E-07
  6.51E-07  5.64E-07  8.47E-07  5.68E-07  4.43E-07  8.17E-07  9.16E-07  9.90E-07
 -7.5536E-01 -7.5285E-01 -6.5606E-01 -6.5592E-01 -6.5369E-01 -6.5355E-01
 -5.2680E-01 -5.2674E-01 -5.2479E-01 -5.2473E-01 -4.5667E-01 -4.5440E-01
 -3.9572E-01 -3.9354E-01 -3.8847E-01 -3.8756E-01 -3.6251E-01 -3.6235E-01
 -3.6059E-01 -3.6044E-01 -3.3155E-01 -3.0929E-01 -2.9213E-01 -2.9204E-01
 -2.9066E-01 -2.9057E-01 -2.3417E-01 -2.3407E-01 -2.1385E-01 -2.1376E-01
 -5.5092E-02 -5.5070E-02 -3.2148E-02 -3.2128E-02 -2.5100E-02 -2.5365E-03
  1.0119E-02  1.0445E-02  1.2197E-02  1.2588E-02  2.2855E-02  2.3123E-02
  3.3413E-02  3.3633E-02  3.3665E-02  3.8056E-02  3.8367E-02  4.4634E-02
  4.9611E-02  4.9776E-02  5.0840E-02  5.0845E-02  5.2043E-02  5.3740E-02
  5.4496E-02  5.6987E-02  6.1254E-02  6.1605E-02  6.1641E-02  6.1666E-02
  6.1685E-02  6.2428E-02  6.3507E-02  6.6075E-02  6.8965E-02  7.5616E-02
  7.6659E-02  7.7089E-02  7.7217E-02  7.9673E-02  8.6281E-02  8.6503E-02
  8.7643E-02  8.7864E-02  8.8549E-02  8.9671E-02  9.0129E-02  9.0949E-02
  9.1304E-02  9.1336E-02  9.1625E-02  9.2083E-02  9.4857E-02  9.8299E-02
  9.9417E-02  1.0142E-01  1.0189E-01  1.0191E-01  1.0312E-01  1.0475E-01
  1.0494E-01  1.0505E-01  1.0833E-01  1.1006E-01  1.1686E-01  1.1940E-01


 *** TDDFT : computation of excited states *** 
 Splitting of  96 states in  30 occupied states, and  66 unoccupied states,
 giving  1980 excitations.

  Ground state total energy (Ha) :   -7.92212965E+01

  Kohn-Sham energy differences,
  corresponding total energies and oscillator strengths (X,Y,Z and average)-
  (oscillator strengths smaller than 1.e-6 are set to zero)
  Transition  (Ha)  and   (eV)   Tot. Ene. (Ha)  Aver     XX       YY       ZZ
  30-> 31 1.58667E-01 4.31755E+00 -7.90626E+01 0.0000E+00 0.00E+00 0.00E+00 0.00E+00
  30-> 32 1.58689E-01 4.31813E+00 -7.90626E+01 0.0000E+00 0.00E+00 0.00E+00 0.00E+00
  29-> 31 1.58760E-01 4.32007E+00 -7.90625E+01 0.0000E+00 0.00E+00 0.00E+00 0.00E+00
  29-> 32 1.58781E-01 4.32066E+00 -7.90625E+01 0.0000E+00 0.00E+00 0.00E+00 0.00E+00
  28-> 31 1.78980E-01 4.87028E+00 -7.90423E+01 3.9026E+00 1.17E+01 3.33E-04 0.00E+00
  28-> 32 1.79001E-01 4.87087E+00 -7.90423E+01 6.2614E-01 3.77E-03 1.87E+00 0.00E+00
  27-> 31 1.79081E-01 4.87305E+00 -7.90422E+01 3.4842E+00 3.12E-03 1.04E+01 0.00E+00
  27-> 32 1.79103E-01 4.87364E+00 -7.90422E+01 3.3728E+00 1.01E+01 4.00E-03 0.00E+00
  30-> 33 1.81610E-01 4.94187E+00 -7.90397E+01 4.0562E+00 1.22E+01 4.17E-04 0.00E+00
  30-> 34 1.81631E-01 4.94243E+00 -7.90397E+01 5.0235E-01 5.98E-03 1.50E+00 0.00E+00
  29-> 33 1.81703E-01 4.94440E+00 -7.90396E+01 3.6284E+00 4.76E-03 1.09E+01 0.00E+00
  29-> 34 1.81724E-01 4.94495E+00 -7.90396E+01 3.3724E+00 1.01E+01 6.16E-03 0.00E+00
  30-> 35 1.88659E-01 5.13367E+00 -7.90326E+01 0.0000E+00 0.00E+00 0.00E+00 0.00E+00
  29-> 35 1.88752E-01 5.13620E+00 -7.90325E+01 0.0000E+00 0.00E+00 0.00E+00 0.00E+00
  28-> 33 2.01923E-01 5.49461E+00 -7.90194E+01 0.0000E+00 0.00E+00 0.00E+00 0.00E+00
  28-> 34 2.01944E-01 5.49516E+00 -7.90194E+01 0.0000E+00 0.00E+00 0.00E+00 0.00E+00
  27-> 33 2.02025E-01 5.49737E+00 -7.90193E+01 0.0000E+00 0.00E+00 0.00E+00 0.00E+00
  27-> 34 2.02045E-01 5.49793E+00 -7.90193E+01 0.0000E+00 0.00E+00 0.00E+00 0.00E+00
  28-> 35 2.08972E-01 5.68641E+00 -7.90123E+01 2.7172E-03 8.15E-03 0.00E+00 0.00E+00
  27-> 35 2.09073E-01 5.68917E+00 -7.90122E+01 3.4893E-03 0.00E+00 1.05E-02 0.00E+00
  30-> 36 2.11222E-01 5.74765E+00 -7.90101E+01 5.6592E-03 1.70E-02 0.00E+00 0.00E+00
  29-> 36 2.11315E-01 5.75017E+00 -7.90100E+01 1.3986E-02 0.00E+00 4.20E-02 0.00E+00
  30-> 37 2.23877E-01 6.09201E+00 -7.89974E+01 0.0000E+00 0.00E+00 0.00E+00 0.00E+00
  29-> 37 2.23970E-01 6.09454E+00 -7.89973E+01 3.9714E-02 0.00E+00 0.00E+00 1.19E-01
  30-> 38 2.24203E-01 6.10088E+00 -7.89971E+01 4.0833E-02 0.00E+00 0.00E+00 1.23E-01
  29-> 38 2.24296E-01 6.10340E+00 -7.89970E+01 0.0000E+00 0.00E+00 0.00E+00 0.00E+00
  30-> 39 2.25955E-01 6.14855E+00 -7.89953E+01 0.0000E+00 0.00E+00 0.00E+00 0.00E+00
  29-> 39 2.26048E-01 6.15108E+00 -7.89952E+01 0.0000E+00 0.00E+00 0.00E+00 0.00E+00
  30-> 40 2.26347E-01 6.15921E+00 -7.89949E+01 0.0000E+00 0.00E+00 0.00E+00 0.00E+00
  29-> 40 2.26440E-01 6.16173E+00 -7.89949E+01 0.0000E+00 0.00E+00 0.00E+00 0.00E+00
  28-> 36 2.31535E-01 6.30038E+00 -7.89898E+01 0.0000E+00 0.00E+00 0.00E+00 0.00E+00
  27-> 36 2.31636E-01 6.30315E+00 -7.89897E+01 0.0000E+00 0.00E+00 0.00E+00 0.00E+00
  26-> 31 2.35483E-01 6.40781E+00 -7.89858E+01 3.2690E-06 0.00E+00 0.00E+00 9.81E-06
  26-> 32 2.35504E-01 6.40839E+00 -7.89858E+01 7.8924E-03 0.00E+00 0.00E+00 2.37E-02
  25-> 31 2.35565E-01 6.41006E+00 -7.89857E+01 7.9971E-03 0.00E+00 0.00E+00 2.40E-02
  25-> 32 2.35587E-01 6.41064E+00 -7.89857E+01 3.3125E-06 0.00E+00 0.00E+00 9.94E-06
  30-> 41 2.36613E-01 6.43857E+00 -7.89847E+01 0.0000E+00 0.00E+00 0.00E+00 0.00E+00
  29-> 41 2.36706E-01 6.44110E+00 -7.89846E+01 0.0000E+00 0.00E+00 0.00E+00 0.00E+00
  30-> 42 2.36881E-01 6.44587E+00 -7.89844E+01 6.6248E-04 1.99E-03 0.00E+00 0.00E+00
  24-> 31 2.36950E-01 6.44773E+00 -7.89843E+01 0.0000E+00 0.00E+00 1.42E-06 0.00E+00
  24-> 32 2.36971E-01 6.44832E+00 -7.89843E+01 1.0804E-03 2.02E-05 3.22E-03 0.00E+00
  29-> 42 2.36974E-01 6.44839E+00 -7.89843E+01 5.6543E-04 0.00E+00 1.70E-03 0.00E+00
  23-> 31 2.37039E-01 6.45016E+00 -7.89843E+01 5.0155E-04 2.81E-04 1.22E-03 0.00E+00
  23-> 32 2.37061E-01 6.45075E+00 -7.89842E+01 0.0000E+00 0.00E+00 0.00E+00 0.00E+00
  28-> 37 2.44190E-01 6.64475E+00 -7.89771E+01 0.0000E+00 0.00E+00 0.00E+00 0.00E+00
  27-> 37 2.44292E-01 6.64751E+00 -7.89770E+01 1.2408E-02 2.30E-02 1.42E-02 0.00E+00
  28-> 38 2.44516E-01 6.65362E+00 -7.89768E+01 9.9344E-03 6.94E-03 2.29E-02 0.00E+00
  27-> 38 2.44618E-01 6.65638E+00 -7.89767E+01 0.0000E+00 0.00E+00 0.00E+00 0.00E+00
  28-> 39 2.46268E-01 6.70129E+00 -7.89750E+01 2.2523E-02 6.76E-02 0.00E+00 0.00E+00
  27-> 39 2.46370E-01 6.70406E+00 -7.89749E+01 1.3369E-02 0.00E+00 4.01E-02 0.00E+00
  28-> 40 2.46659E-01 6.71194E+00 -7.89746E+01 3.4089E-03 1.02E-02 0.00E+00 0.00E+00
  27-> 40 2.46761E-01 6.71471E+00 -7.89745E+01 1.4404E-02 0.00E+00 4.32E-02 0.00E+00
  30-> 43 2.47172E-01 6.72588E+00 -7.89741E+01 0.0000E+00 1.09E-06 0.00E+00 0.00E+00
  29-> 43 2.47264E-01 6.72841E+00 -7.89740E+01 6.4559E-02 1.14E-01 7.97E-02 0.00E+00
  30-> 44 2.47391E-01 6.73186E+00 -7.89739E+01 0.0000E+00 0.00E+00 0.00E+00 0.00E+00
  30-> 45 2.47424E-01 6.73275E+00 -7.89739E+01 4.8718E-02 3.16E-02 1.15E-01 0.00E+00
  29-> 44 2.47484E-01 6.73438E+00 -7.89738E+01 0.0000E+00 0.00E+00 0.00E+00 0.00E+00
  29-> 45 2.47517E-01 6.73527E+00 -7.89738E+01 0.0000E+00 0.00E+00 1.04E-06 0.00E+00
  30-> 46 2.51815E-01 6.85223E+00 -7.89695E+01 6.9202E-02 2.08E-01 1.59E-06 0.00E+00
  29-> 46 2.51908E-01 6.85476E+00 -7.89694E+01 5.7534E-02 1.76E-06 1.73E-01 0.00E+00
  30-> 47 2.52126E-01 6.86070E+00 -7.89692E+01 0.0000E+00 0.00E+00 0.00E+00 0.00E+00
  29-> 47 2.52219E-01 6.86322E+00 -7.89691E+01 0.0000E+00 0.00E+00 0.00E+00 0.00E+00
  22-> 31 2.54201E-01 6.91715E+00 -7.89671E+01 0.0000E+00 0.00E+00 0.00E+00 1.80E-06
  22-> 32 2.54222E-01 6.91774E+00 -7.89671E+01 0.0000E+00 0.00E+00 0.00E+00 0.00E+00
  28-> 41 2.56926E-01 6.99131E+00 -7.89644E+01 1.8074E-02 5.42E-02 1.03E-06 0.00E+00
  27-> 41 2.57027E-01 6.99407E+00 -7.89643E+01 3.5633E-02 0.00E+00 1.07E-01 0.00E+00
  28-> 42 2.57194E-01 6.99861E+00 -7.89641E+01 0.0000E+00 0.00E+00 0.00E+00 0.00E+00
  27-> 42 2.57296E-01 7.00137E+00 -7.89640E+01 0.0000E+00 0.00E+00 0.00E+00 0.00E+00
  30-> 48 2.58393E-01 7.03123E+00 -7.89629E+01 1.4751E-05 4.42E-05 0.00E+00 0.00E+00
  26-> 33 2.58426E-01 7.03213E+00 -7.89629E+01 1.1438E-06 0.00E+00 3.04E-06 0.00E+00
  26-> 34 2.58446E-01 7.03269E+00 -7.89629E+01 1.6111E-03 3.69E-04 4.46E-03 0.00E+00
  29-> 48 2.58486E-01 7.03375E+00 -7.89628E+01 3.1031E-03 0.00E+00 9.31E-03 0.00E+00
  25-> 33 2.58509E-01 7.03438E+00 -7.89628E+01 5.3564E-04 4.17E-04 1.19E-03 0.00E+00
  25-> 34 2.58529E-01 7.03494E+00 -7.89628E+01 0.0000E+00 0.00E+00 0.00E+00 0.00E+00
  24-> 33 2.59893E-01 7.07206E+00 -7.89614E+01 0.0000E+00 0.00E+00 0.00E+00 2.35E-06
  24-> 34 2.59914E-01 7.07261E+00 -7.89614E+01 1.2856E-03 0.00E+00 0.00E+00 3.86E-03
  23-> 33 2.59983E-01 7.07449E+00 -7.89613E+01 1.3138E-03 0.00E+00 0.00E+00 3.94E-03
  23-> 34 2.60003E-01 7.07504E+00 -7.89613E+01 0.0000E+00 0.00E+00 0.00E+00 2.39E-06
  30-> 49 2.63370E-01 7.16666E+00 -7.89579E+01 2.0252E-04 6.07E-04 0.00E+00 0.00E+00
  29-> 49 2.63463E-01 7.16919E+00 -7.89578E+01 2.2060E-03 0.00E+00 6.62E-03 1.27E-06
  30-> 50 2.63535E-01 7.17114E+00 -7.89578E+01 0.0000E+00 0.00E+00 0.00E+00 0.00E+00
  29-> 50 2.63627E-01 7.17367E+00 -7.89577E+01 0.0000E+00 0.00E+00 0.00E+00 1.43E-06
  30-> 51 2.64598E-01 7.20008E+00 -7.89567E+01 0.0000E+00 0.00E+00 0.00E+00 0.00E+00
  30-> 52 2.64603E-01 7.20022E+00 -7.89567E+01 5.2080E-04 0.00E+00 0.00E+00 1.56E-03
  29-> 51 2.64691E-01 7.20261E+00 -7.89566E+01 4.3752E-04 0.00E+00 0.00E+00 1.31E-03
  29-> 52 2.64696E-01 7.20275E+00 -7.89566E+01 0.0000E+00 0.00E+00 0.00E+00 0.00E+00
  26-> 35 2.65475E-01 7.22393E+00 -7.89558E+01 0.0000E+00 0.00E+00 0.00E+00 0.00E+00
  25-> 35 2.65557E-01 7.22618E+00 -7.89557E+01 0.0000E+00 0.00E+00 0.00E+00 0.00E+00
  30-> 53 2.65802E-01 7.23283E+00 -7.89555E+01 0.0000E+00 0.00E+00 0.00E+00 1.02E-06
  29-> 53 2.65894E-01 7.23535E+00 -7.89554E+01 3.0427E-06 1.29E-06 7.62E-06 0.00E+00
  24-> 35 2.66942E-01 7.26386E+00 -7.89544E+01 0.0000E+00 0.00E+00 0.00E+00 0.00E+00
  23-> 35 2.67031E-01 7.26629E+00 -7.89543E+01 1.2283E-01 2.90E-01 7.88E-02 0.00E+00
  28-> 43 2.67484E-01 7.27862E+00 -7.89538E+01 0.0000E+00 0.00E+00 0.00E+00 0.00E+00
  30-> 54 2.67499E-01 7.27901E+00 -7.89538E+01 0.0000E+00 0.00E+00 0.00E+00 0.00E+00
  27-> 43 2.67586E-01 7.28138E+00 -7.89537E+01 1.0985E-02 0.00E+00 0.00E+00 3.30E-02
  29-> 54 2.67591E-01 7.28153E+00 -7.89537E+01 1.0422E-06 0.00E+00 3.04E-06 0.00E+00
  28-> 44 2.67704E-01 7.28459E+00 -7.89536E+01 3.9657E-05 0.00E+00 1.19E-04 0.00E+00
  28-> 45 2.67737E-01 7.28549E+00 -7.89536E+01 1.1233E-02 0.00E+00 0.00E+00 3.37E-02
  27-> 44 2.67805E-01 7.28736E+00 -7.89535E+01 8.7054E-03 2.61E-02 0.00E+00 0.00E+00
  27-> 45 2.67838E-01 7.28825E+00 -7.89535E+01 0.0000E+00 0.00E+00 0.00E+00 0.00E+00
  30-> 55 2.68255E-01 7.29959E+00 -7.89530E+01 0.0000E+00 0.00E+00 0.00E+00 0.00E+00
  29-> 55 2.68348E-01 7.30212E+00 -7.89529E+01 1.6271E-02 1.51E-06 3.46E-06 4.88E-02
  30-> 56 2.70745E-01 7.36735E+00 -7.89506E+01 1.1185E-02 0.00E+00 0.00E+00 3.36E-02
  29-> 56 2.70838E-01 7.36988E+00 -7.89505E+01 0.0000E+00 0.00E+00 0.00E+00 0.00E+00
  28-> 46 2.72128E-01 7.40497E+00 -7.89492E+01 0.0000E+00 0.00E+00 0.00E+00 0.00E+00
  27-> 46 2.72229E-01 7.40773E+00 -7.89491E+01 0.0000E+00 0.00E+00 0.00E+00 0.00E+00
  28-> 47 2.72439E-01 7.41344E+00 -7.89489E+01 5.3305E-05 1.60E-04 0.00E+00 0.00E+00
  27-> 47 2.72540E-01 7.41620E+00 -7.89488E+01 1.2037E-05 0.00E+00 3.61E-05 0.00E+00
  30-> 57 2.75012E-01 7.48347E+00 -7.89463E+01 0.0000E+00 0.00E+00 0.00E+00 0.00E+00
  29-> 57 2.75105E-01 7.48600E+00 -7.89462E+01 6.5978E-03 0.00E+00 0.00E+00 1.98E-02
  30-> 58 2.75363E-01 7.49302E+00 -7.89459E+01 1.0306E-02 0.00E+00 0.00E+00 3.09E-02
  30-> 59 2.75399E-01 7.49400E+00 -7.89459E+01 1.6033E-03 2.14E-03 2.67E-03 1.09E-06
  30-> 60 2.75425E-01 7.49469E+00 -7.89459E+01 3.1565E-03 1.10E-06 9.47E-03 0.00E+00
  30-> 61 2.75443E-01 7.49519E+00 -7.89459E+01 1.5322E-06 0.00E+00 4.36E-06 0.00E+00
  29-> 58 2.75456E-01 7.49554E+00 -7.89458E+01 0.0000E+00 0.00E+00 0.00E+00 1.48E-06
  29-> 59 2.75492E-01 7.49652E+00 -7.89458E+01 2.6815E-05 8.03E-05 0.00E+00 0.00E+00
  29-> 60 2.75518E-01 7.49722E+00 -7.89458E+01 2.0465E-02 6.14E-02 9.01E-06 0.00E+00
  29-> 61 2.75536E-01 7.49771E+00 -7.89458E+01 2.9511E-03 7.03E-04 8.15E-03 0.00E+00
  30-> 62 2.76186E-01 7.51541E+00 -7.89451E+01 2.9139E-03 8.74E-03 0.00E+00 0.00E+00
  29-> 62 2.76279E-01 7.51793E+00 -7.89450E+01 2.3048E-03 0.00E+00 6.91E-03 0.00E+00
  21-> 31 2.76454E-01 7.52271E+00 -7.89448E+01 9.4729E+00 1.63E+01 1.21E+01 0.00E+00
  21-> 32 2.76476E-01 7.52329E+00 -7.89448E+01 4.1325E-03 7.15E-03 5.25E-03 0.00E+00
  22-> 33 2.77144E-01 7.54148E+00 -7.89442E+01 9.8560E+00 1.71E+01 1.24E+01 0.00E+00
  22-> 34 2.77165E-01 7.54203E+00 -7.89441E+01 6.0999E-03 1.06E-02 7.67E-03 0.00E+00
  30-> 63 2.77265E-01 7.54477E+00 -7.89440E+01 0.0000E+00 0.00E+00 0.00E+00 0.00E+00
  29-> 63 2.77358E-01 7.54730E+00 -7.89439E+01 1.7440E-06 1.92E-06 3.27E-06 0.00E+00
  28-> 48 2.78706E-01 7.58396E+00 -7.89426E+01 0.0000E+00 0.00E+00 0.00E+00 0.00E+00
  27-> 48 2.78807E-01 7.58673E+00 -7.89425E+01 0.0000E+00 0.00E+00 0.00E+00 0.00E+00
  30-> 64 2.79833E-01 7.61465E+00 -7.89415E+01 0.0000E+00 0.00E+00 0.00E+00 0.00E+00
  29-> 64 2.79926E-01 7.61717E+00 -7.89414E+01 0.0000E+00 0.00E+00 1.48E-06 0.00E+00
  30-> 65 2.82724E-01 7.69331E+00 -7.89386E+01 3.6683E-04 1.10E-03 0.00E+00 0.00E+00
  29-> 65 2.82817E-01 7.69584E+00 -7.89385E+01 3.6422E-03 0.00E+00 1.09E-02 1.23E-06
  28-> 49 2.83683E-01 7.71940E+00 -7.89376E+01 1.7241E-06 4.29E-06 0.00E+00 0.00E+00
  27-> 49 2.83784E-01 7.72217E+00 -7.89375E+01 1.4713E-06 3.19E-06 1.22E-06 0.00E+00
  28-> 50 2.83847E-01 7.72388E+00 -7.89374E+01 2.7531E-02 8.26E-02 1.42E-06 0.00E+00
  27-> 50 2.83949E-01 7.72664E+00 -7.89373E+01 4.8520E-02 3.35E-06 1.46E-01 0.00E+00
  22-> 35 2.84193E-01 7.73328E+00 -7.89371E+01 2.8845E-02 0.00E+00 0.00E+00 8.65E-02
  28-> 51 2.84911E-01 7.75282E+00 -7.89364E+01 0.0000E+00 0.00E+00 2.34E-06 0.00E+00
  28-> 52 2.84916E-01 7.75296E+00 -7.89364E+01 3.0261E-02 2.38E-02 6.70E-02 0.00E+00
  27-> 51 2.85013E-01 7.75559E+00 -7.89363E+01 4.3132E-02 7.20E-02 5.74E-02 0.00E+00
  27-> 52 2.85018E-01 7.75572E+00 -7.89363E+01 1.2666E-06 3.20E-06 0.00E+00 0.00E+00
  28-> 53 2.86114E-01 7.78557E+00 -7.89352E+01 5.9236E-03 1.78E-02 0.00E+00 0.00E+00
  27-> 53 2.86216E-01 7.78833E+00 -7.89351E+01 5.6176E-03 0.00E+00 1.69E-02 0.00E+00
  28-> 54 2.87811E-01 7.83174E+00 -7.89335E+01 3.6483E-03 1.09E-02 0.00E+00 0.00E+00
  27-> 54 2.87913E-01 7.83451E+00 -7.89334E+01 6.0435E-03 0.00E+00 1.81E-02 0.00E+00
  26-> 36 2.88038E-01 7.83791E+00 -7.89333E+01 0.0000E+00 0.00E+00 0.00E+00 0.00E+00
  25-> 36 2.88120E-01 7.84016E+00 -7.89332E+01 1.0348E-01 2.49E-01 6.18E-02 0.00E+00
  28-> 55 2.88568E-01 7.85233E+00 -7.89327E+01 1.4199E-06 2.19E-06 2.05E-06 0.00E+00
  27-> 55 2.88669E-01 7.85509E+00 -7.89326E+01 2.0681E-01 3.91E-01 2.29E-01 0.00E+00
  30-> 66 2.89375E-01 7.87429E+00 -7.89319E+01 0.0000E+00 1.68E-06 0.00E+00 0.00E+00
  29-> 66 2.89467E-01 7.87681E+00 -7.89318E+01 0.0000E+00 1.03E-06 0.00E+00 0.00E+00
  24-> 36 2.89505E-01 7.87783E+00 -7.89318E+01 0.0000E+00 0.00E+00 0.00E+00 0.00E+00
  23-> 36 2.89594E-01 7.88026E+00 -7.89317E+01 0.0000E+00 0.00E+00 0.00E+00 0.00E+00
  30-> 67 2.90418E-01 7.90267E+00 -7.89309E+01 5.3473E-06 7.26E-06 7.11E-06 1.67E-06
  29-> 67 2.90510E-01 7.90519E+00 -7.89308E+01 4.2642E-01 6.45E-01 6.35E-01 0.00E+00
  30-> 68 2.90847E-01 7.91436E+00 -7.89304E+01 0.0000E+00 0.00E+00 0.00E+00 2.55E-06
  29-> 68 2.90940E-01 7.91688E+00 -7.89304E+01 3.8937E-03 1.23E-06 2.77E-05 1.17E-02
  30-> 69 2.90976E-01 7.91786E+00 -7.89303E+01 3.6098E-06 9.79E-06 0.00E+00 0.00E+00
  28-> 56 2.91058E-01 7.92009E+00 -7.89302E+01 3.0533E-03 8.94E-03 2.20E-04 0.00E+00
  29-> 69 2.91069E-01 7.92038E+00 -7.89302E+01 2.4839E-03 4.67E-06 7.44E-03 4.54E-06
  27-> 56 2.91160E-01 7.92286E+00 -7.89301E+01 0.0000E+00 0.00E+00 0.00E+00 0.00E+00
  30-> 70 2.93432E-01 7.98468E+00 -7.89279E+01 6.1280E-03 1.80E-02 3.41E-04 0.00E+00
  29-> 70 2.93525E-01 7.98721E+00 -7.89278E+01 2.7429E-06 2.85E-06 5.03E-06 0.00E+00
  28-> 57 2.95325E-01 8.03621E+00 -7.89260E+01 0.0000E+00 2.40E-06 0.00E+00 0.00E+00
  27-> 57 2.95427E-01 8.03897E+00 -7.89259E+01 2.0371E-01 5.66E-01 4.54E-02 0.00E+00
  28-> 58 2.95676E-01 8.04576E+00 -7.89256E+01 1.0150E-01 6.25E-02 2.42E-01 0.00E+00
  28-> 59 2.95712E-01 8.04673E+00 -7.89256E+01 6.0175E-06 1.17E-06 7.60E-06 9.29E-06
  28-> 60 2.95738E-01 8.04743E+00 -7.89256E+01 0.0000E+00 0.00E+00 0.00E+00 0.00E+00
  28-> 61 2.95756E-01 8.04793E+00 -7.89255E+01 0.0000E+00 0.00E+00 0.00E+00 0.00E+00
  27-> 58 2.95778E-01 8.04852E+00 -7.89255E+01 1.6219E-06 2.51E-06 2.32E-06 0.00E+00
  27-> 59 2.95814E-01 8.04950E+00 -7.89255E+01 0.0000E+00 0.00E+00 0.00E+00 0.00E+00
  27-> 60 2.95839E-01 8.05020E+00 -7.89255E+01 0.0000E+00 0.00E+00 0.00E+00 0.00E+00
  27-> 61 2.95857E-01 8.05069E+00 -7.89254E+01 7.4468E-06 0.00E+00 0.00E+00 2.19E-05
  28-> 62 2.96499E-01 8.06815E+00 -7.89248E+01 0.0000E+00 0.00E+00 0.00E+00 0.00E+00
  27-> 62 2.96600E-01 8.07091E+00 -7.89247E+01 0.0000E+00 0.00E+00 0.00E+00 0.00E+00
  28-> 63 2.97578E-01 8.09751E+00 -7.89237E+01 2.0652E-02 6.20E-02 0.00E+00 0.00E+00
  27-> 63 2.97680E-01 8.10027E+00 -7.89236E+01 3.2534E-02 0.00E+00 9.76E-02 0.00E+00
  21-> 33 2.99398E-01 8.14703E+00 -7.89219E+01 0.0000E+00 0.00E+00 0.00E+00 0.00E+00
  21-> 34 2.99418E-01 8.14759E+00 -7.89219E+01 0.0000E+00 0.00E+00 0.00E+00 0.00E+00
  30-> 71 3.00040E-01 8.16449E+00 -7.89213E+01 5.7720E-03 0.00E+00 0.00E+00 1.73E-02
  29-> 71 3.00132E-01 8.16702E+00 -7.89212E+01 0.0000E+00 0.00E+00 1.58E-06 0.00E+00
  28-> 64 3.00146E-01 8.16739E+00 -7.89212E+01 3.4754E-02 1.04E-01 0.00E+00 0.00E+00
  27-> 64 3.00247E-01 8.17015E+00 -7.89210E+01 2.6422E-02 1.14E-05 7.93E-02 0.00E+00
  30-> 72 3.00262E-01 8.17054E+00 -7.89210E+01 0.0000E+00 0.00E+00 0.00E+00 0.00E+00
  29-> 72 3.00355E-01 8.17306E+00 -7.89209E+01 4.3997E-03 0.00E+00 0.00E+00 1.32E-02
  26-> 37 3.00693E-01 8.18227E+00 -7.89206E+01 0.0000E+00 0.00E+00 0.00E+00 0.00E+00
  25-> 37 3.00776E-01 8.18452E+00 -7.89205E+01 0.0000E+00 0.00E+00 0.00E+00 0.00E+00
  26-> 38 3.01019E-01 8.19114E+00 -7.89203E+01 0.0000E+00 0.00E+00 0.00E+00 0.00E+00
  25-> 38 3.01102E-01 8.19339E+00 -7.89202E+01 0.0000E+00 0.00E+00 0.00E+00 0.00E+00
  30-> 73 3.01402E-01 8.20157E+00 -7.89199E+01 0.0000E+00 0.00E+00 1.47E-06 0.00E+00
  29-> 73 3.01495E-01 8.20409E+00 -7.89198E+01 9.6470E-03 6.31E-04 2.83E-02 0.00E+00
  30-> 74 3.01623E-01 8.20758E+00 -7.89197E+01 5.7062E-03 6.34E-03 1.08E-02 0.00E+00
  29-> 74 3.01716E-01 8.21010E+00 -7.89196E+01 1.0400E-05 0.00E+00 4.50E-06 2.67E-05
  24-> 37 3.02160E-01 8.22220E+00 -7.89191E+01 1.1751E-02 3.53E-02 0.00E+00 0.00E+00
  23-> 37 3.02250E-01 8.22463E+00 -7.89190E+01 1.7246E-02 0.00E+00 5.17E-02 0.00E+00
  30-> 75 3.02307E-01 8.22620E+00 -7.89190E+01 0.0000E+00 0.00E+00 0.00E+00 0.00E+00
  29-> 75 3.02400E-01 8.22873E+00 -7.89189E+01 7.9237E-06 7.85E-06 1.59E-05 0.00E+00
  24-> 38 3.02486E-01 8.23107E+00 -7.89188E+01 3.4939E-01 0.00E+00 1.05E+00 0.00E+00
  23-> 38 3.02575E-01 8.23350E+00 -7.89187E+01 4.5666E-03 1.37E-02 0.00E+00 0.00E+00
  26-> 39 3.02771E-01 8.23881E+00 -7.89185E+01 0.0000E+00 0.00E+00 0.00E+00 0.00E+00
  25-> 39 3.02854E-01 8.24106E+00 -7.89184E+01 5.1024E-04 0.00E+00 0.00E+00 1.53E-03
  28-> 65 3.03037E-01 8.24605E+00 -7.89183E+01 1.3853E-06 0.00E+00 3.84E-06 0.00E+00
  27-> 65 3.03138E-01 8.24881E+00 -7.89182E+01 0.0000E+00 1.27E-06 0.00E+00 0.00E+00
  26-> 40 3.03162E-01 8.24947E+00 -7.89181E+01 0.0000E+00 0.00E+00 0.00E+00 0.00E+00
  25-> 40 3.03245E-01 8.25172E+00 -7.89181E+01 4.3849E-06 0.00E+00 0.00E+00 1.32E-05
  30-> 76 3.03430E-01 8.25675E+00 -7.89179E+01 0.0000E+00 0.00E+00 0.00E+00 0.00E+00
  29-> 76 3.03523E-01 8.25928E+00 -7.89178E+01 0.0000E+00 0.00E+00 1.12E-06 0.00E+00
  30-> 77 3.03887E-01 8.26920E+00 -7.89174E+01 3.8291E-06 1.06E-05 0.00E+00 0.00E+00
  29-> 77 3.03980E-01 8.27172E+00 -7.89173E+01 8.9070E-06 0.00E+00 2.56E-05 0.00E+00
  24-> 39 3.04238E-01 8.27874E+00 -7.89171E+01 0.0000E+00 0.00E+00 0.00E+00 0.00E+00
  23-> 39 3.04327E-01 8.28117E+00 -7.89170E+01 2.4402E-03 4.57E-03 2.75E-03 0.00E+00
  24-> 40 3.04630E-01 8.28939E+00 -7.89167E+01 0.0000E+00 0.00E+00 0.00E+00 0.00E+00
  30-> 78 3.04707E-01 8.29151E+00 -7.89166E+01 0.0000E+00 0.00E+00 0.00E+00 0.00E+00
  23-> 40 3.04719E-01 8.29182E+00 -7.89166E+01 5.6762E-03 1.52E-02 1.83E-03 0.00E+00
  29-> 78 3.04800E-01 8.29404E+00 -7.89165E+01 0.0000E+00 0.00E+00 0.00E+00 0.00E+00
  30-> 79 3.05063E-01 8.30118E+00 -7.89162E+01 2.3185E-03 6.96E-03 0.00E+00 0.00E+00
  30-> 80 3.05095E-01 8.30206E+00 -7.89162E+01 2.2114E-06 1.33E-06 0.00E+00 5.13E-06
  29-> 79 3.05156E-01 8.30371E+00 -7.89161E+01 1.3215E-03 0.00E+00 3.96E-03 0.00E+00
  29-> 80 3.05188E-01 8.30458E+00 -7.89161E+01 0.0000E+00 0.00E+00 1.17E-06 0.00E+00
  20-> 31 3.05345E-01 8.30885E+00 -7.89160E+01 0.0000E+00 0.00E+00 0.00E+00 0.00E+00
  20-> 32 3.05366E-01 8.30944E+00 -7.89159E+01 0.0000E+00 0.00E+00 0.00E+00 0.00E+00
  30-> 81 3.05383E-01 8.30991E+00 -7.89159E+01 0.0000E+00 0.00E+00 0.00E+00 0.00E+00
  29-> 81 3.05476E-01 8.31243E+00 -7.89158E+01 5.5796E-05 0.00E+00 0.00E+00 1.67E-04
  19-> 31 3.05498E-01 8.31302E+00 -7.89158E+01 0.0000E+00 0.00E+00 0.00E+00 0.00E+00
  19-> 32 3.05520E-01 8.31361E+00 -7.89158E+01 0.0000E+00 0.00E+00 0.00E+00 0.00E+00
  30-> 82 3.05841E-01 8.32237E+00 -7.89155E+01 0.0000E+00 0.00E+00 0.00E+00 0.00E+00
  29-> 82 3.05934E-01 8.32489E+00 -7.89154E+01 3.5716E-06 3.40E-06 5.32E-06 1.99E-06
  21-> 35 3.06447E-01 8.33883E+00 -7.89149E+01 9.2812E-03 1.24E-02 1.55E-02 0.00E+00
  22-> 36 3.06756E-01 8.34725E+00 -7.89145E+01 3.4168E-02 3.67E-02 6.58E-02 0.00E+00
  18-> 31 3.07259E-01 8.36094E+00 -7.89140E+01 2.5403E-05 7.45E-05 1.69E-06 0.00E+00
  18-> 32 3.07281E-01 8.36153E+00 -7.89140E+01 1.2692E-03 0.00E+00 3.81E-03 0.00E+00
  17-> 31 3.07418E-01 8.36526E+00 -7.89139E+01 4.6229E-04 1.69E-06 1.39E-03 0.00E+00
  17-> 32 3.07439E-01 8.36585E+00 -7.89139E+01 1.1980E-03 3.59E-03 0.00E+00 0.00E+00
  30-> 83 3.08616E-01 8.39786E+00 -7.89127E+01 0.0000E+00 0.00E+00 1.17E-06 0.00E+00
  29-> 83 3.08709E-01 8.40039E+00 -7.89126E+01 2.1359E-06 1.68E-06 3.73E-06 1.00E-06
  28-> 66 3.09687E-01 8.42702E+00 -7.89116E+01 3.1223E-02 9.37E-02 0.00E+00 0.00E+00
  27-> 66 3.09789E-01 8.42979E+00 -7.89115E+01 5.4122E-02 0.00E+00 1.62E-01 0.00E+00
  28-> 67 3.10730E-01 8.45541E+00 -7.89106E+01 0.0000E+00 0.00E+00 1.04E-06 0.00E+00
  27-> 67 3.10832E-01 8.45817E+00 -7.89105E+01 5.4882E-03 1.37E-04 9.13E-05 1.62E-02
  28-> 68 3.11160E-01 8.46710E+00 -7.89101E+01 7.0235E-05 1.39E-04 7.17E-05 0.00E+00
  27-> 68 3.11262E-01 8.46986E+00 -7.89100E+01 7.1351E+00 1.41E+01 7.28E+00 1.36E-06
  28-> 69 3.11289E-01 8.47060E+00 -7.89100E+01 0.0000E+00 0.00E+00 0.00E+00 0.00E+00
  27-> 69 3.11390E-01 8.47336E+00 -7.89099E+01 4.3428E-03 8.45E-03 4.58E-03 2.99E-06
  30-> 84 3.12058E-01 8.49152E+00 -7.89092E+01 3.2690E-05 0.00E+00 9.73E-05 0.00E+00
  29-> 84 3.12150E-01 8.49404E+00 -7.89091E+01 9.4860E-06 2.81E-05 0.00E+00 0.00E+00
  30-> 85 3.13175E-01 8.52194E+00 -7.89081E+01 2.5166E-05 3.38E-05 3.76E-05 4.12E-06
  29-> 85 3.13268E-01 8.52446E+00 -7.89080E+01 2.3681E+00 4.88E+00 2.22E+00 0.00E+00
  26-> 41 3.13429E-01 8.52883E+00 -7.89079E+01 0.0000E+00 0.00E+00 0.00E+00 0.00E+00
  25-> 41 3.13511E-01 8.53108E+00 -7.89078E+01 0.0000E+00 0.00E+00 0.00E+00 2.68E-06
  26-> 42 3.13697E-01 8.53613E+00 -7.89076E+01 0.0000E+00 0.00E+00 0.00E+00 0.00E+00
  28-> 70 3.13744E-01 8.53742E+00 -7.89076E+01 4.0498E-03 0.00E+00 0.00E+00 1.21E-02
  25-> 42 3.13780E-01 8.53838E+00 -7.89075E+01 5.2929E-02 1.32E-01 2.73E-02 0.00E+00
  27-> 70 3.13846E-01 8.54018E+00 -7.89075E+01 1.2631E-06 3.52E-06 0.00E+00 0.00E+00
  24-> 41 3.14896E-01 8.56876E+00 -7.89064E+01 0.0000E+00 0.00E+00 0.00E+00 0.00E+00
  23-> 41 3.14985E-01 8.57119E+00 -7.89063E+01 9.2431E-03 2.57E-02 2.02E-03 0.00E+00
  24-> 42 3.15164E-01 8.57605E+00 -7.89061E+01 0.0000E+00 0.00E+00 0.00E+00 0.00E+00
  30-> 86 3.15174E-01 8.57632E+00 -7.89061E+01 0.0000E+00 0.00E+00 0.00E+00 0.00E+00
  23-> 42 3.15254E-01 8.57849E+00 -7.89060E+01 0.0000E+00 0.00E+00 0.00E+00 0.00E+00
  29-> 86 3.15267E-01 8.57885E+00 -7.89060E+01 4.0077E-06 0.00E+00 5.60E-06 5.75E-06
  30-> 87 3.15652E-01 8.58932E+00 -7.89056E+01 2.5326E-03 2.32E-03 5.28E-03 0.00E+00
  30-> 88 3.15669E-01 8.58979E+00 -7.89056E+01 2.4599E-03 7.38E-03 0.00E+00 0.00E+00
  29-> 87 3.15745E-01 8.59185E+00 -7.89056E+01 1.0954E-06 1.73E-06 1.38E-06 0.00E+00
  29-> 88 3.15762E-01 8.59232E+00 -7.89055E+01 6.0482E-03 5.97E-06 1.81E-02 1.07E-06
  30-> 89 3.16878E-01 8.62268E+00 -7.89044E+01 1.0840E-02 0.00E+00 0.00E+00 3.25E-02
  29-> 89 3.16970E-01 8.62520E+00 -7.89043E+01 2.8324E-06 1.31E-06 2.75E-06 4.44E-06
  30-> 90 3.18507E-01 8.66702E+00 -7.89028E+01 0.0000E+00 0.00E+00 0.00E+00 0.00E+00
  29-> 90 3.18600E-01 8.66954E+00 -7.89027E+01 8.2995E-03 8.95E-06 1.91E-06 2.49E-02
  30-> 91 3.18697E-01 8.67220E+00 -7.89026E+01 6.8517E-05 1.29E-04 7.05E-05 6.45E-06
  29-> 91 3.18790E-01 8.67472E+00 -7.89025E+01 6.2860E+00 1.30E+01 5.83E+00 0.00E+00
  30-> 92 3.18813E-01 8.67534E+00 -7.89025E+01 1.0318E-06 0.00E+00 0.00E+00 2.24E-06
  29-> 92 3.18906E-01 8.67787E+00 -7.89024E+01 4.3234E-06 3.20E-06 0.00E+00 9.77E-06
  22-> 37 3.19411E-01 8.69162E+00 -7.89019E+01 0.0000E+00 0.00E+00 0.00E+00 0.00E+00
  22-> 38 3.19737E-01 8.70049E+00 -7.89016E+01 0.0000E+00 0.00E+00 0.00E+00 0.00E+00
  28-> 71 3.20352E-01 8.71723E+00 -7.89009E+01 1.0775E-01 1.13E-01 2.10E-01 0.00E+00
  27-> 71 3.20454E-01 8.71999E+00 -7.89008E+01 1.3375E-05 3.67E-05 3.28E-06 0.00E+00
  28-> 72 3.20575E-01 8.72328E+00 -7.89007E+01 1.7232E-06 2.70E-06 2.25E-06 0.00E+00
  27-> 72 3.20676E-01 8.72604E+00 -7.89006E+01 3.1979E-01 9.26E-01 3.35E-02 0.00E+00
  22-> 39 3.21489E-01 8.74816E+00 -7.88998E+01 2.1202E-04 0.00E+00 0.00E+00 6.36E-04
  28-> 73 3.21715E-01 8.75431E+00 -7.88996E+01 1.0369E-06 2.29E-06 0.00E+00 0.00E+00
  27-> 73 3.21816E-01 8.75707E+00 -7.88995E+01 1.1030E-02 3.15E-06 4.10E-06 3.31E-02
  22-> 40 3.21880E-01 8.75881E+00 -7.88994E+01 1.1200E-02 0.00E+00 0.00E+00 3.36E-02
  28-> 74 3.21936E-01 8.76031E+00 -7.88994E+01 1.3449E-02 1.08E-06 2.07E-06 4.03E-02
  27-> 74 3.22037E-01 8.76308E+00 -7.88993E+01 1.6415E-05 0.00E+00 4.76E-05 1.42E-06
  30-> 93 3.22085E-01 8.76437E+00 -7.88992E+01 7.6003E-05 2.27E-04 0.00E+00 0.00E+00
  29-> 93 3.22178E-01 8.76690E+00 -7.88991E+01 6.7116E-04 0.00E+00 2.00E-03 1.05E-05
  28-> 75 3.22620E-01 8.77894E+00 -7.88987E+01 7.3540E-02 2.21E-01 2.19E-06 0.00E+00
  27-> 75 3.22722E-01 8.78170E+00 -7.88986E+01 1.2812E-01 6.38E-06 3.84E-01 1.36E-06
  28-> 76 3.23743E-01 8.80949E+00 -7.88976E+01 2.6531E-03 0.00E+00 7.96E-03 0.00E+00
  30-> 94 3.23823E-01 8.81168E+00 -7.88975E+01 0.0000E+00 0.00E+00 0.00E+00 0.00E+00
  27-> 76 3.23844E-01 8.81225E+00 -7.88975E+01 2.8115E-03 8.43E-03 0.00E+00 0.00E+00
  29-> 94 3.23916E-01 8.81421E+00 -7.88974E+01 1.6324E-05 1.37E-06 4.74E-05 0.00E+00
  26-> 43 3.23987E-01 8.81614E+00 -7.88973E+01 1.0591E-02 3.18E-02 0.00E+00 0.00E+00
  25-> 43 3.24070E-01 8.81839E+00 -7.88972E+01 9.3623E-03 0.00E+00 2.81E-02 0.00E+00
  28-> 77 3.24200E-01 8.82194E+00 -7.88971E+01 0.0000E+00 2.41E-06 0.00E+00 0.00E+00
  26-> 44 3.24207E-01 8.82211E+00 -7.88971E+01 8.4704E-04 0.00E+00 0.00E+00 2.54E-03
  26-> 45 3.24240E-01 8.82301E+00 -7.88971E+01 2.6875E-01 0.00E+00 8.06E-01 0.00E+00
  25-> 44 3.24289E-01 8.82437E+00 -7.88970E+01 0.0000E+00 0.00E+00 0.00E+00 0.00E+00
  27-> 77 3.24302E-01 8.82470E+00 -7.88970E+01 3.2783E-06 9.13E-06 0.00E+00 0.00E+00
  25-> 45 3.24322E-01 8.82526E+00 -7.88970E+01 1.0281E-03 3.08E-03 0.00E+00 0.00E+00
  28-> 78 3.25020E-01 8.84425E+00 -7.88963E+01 1.6083E-02 4.82E-02 0.00E+00 0.00E+00
  27-> 78 3.25122E-01 8.84701E+00 -7.88962E+01 1.8385E-02 2.22E-06 5.52E-02 0.00E+00
  28-> 79 3.25376E-01 8.85392E+00 -7.88959E+01 1.7560E-06 0.00E+00 4.87E-06 0.00E+00
  28-> 80 3.25408E-01 8.85479E+00 -7.88959E+01 3.2913E-02 1.45E-02 8.42E-02 0.00E+00
  24-> 43 3.25455E-01 8.85607E+00 -7.88958E+01 0.0000E+00 0.00E+00 0.00E+00 0.00E+00
  27-> 79 3.25477E-01 8.85669E+00 -7.88958E+01 1.9421E-06 2.46E-06 3.31E-06 0.00E+00
  27-> 80 3.25509E-01 8.85756E+00 -7.88958E+01 0.0000E+00 0.00E+00 0.00E+00 0.00E+00
  23-> 43 3.25544E-01 8.85850E+00 -7.88958E+01 0.0000E+00 0.00E+00 0.00E+00 0.00E+00
  24-> 44 3.25674E-01 8.86204E+00 -7.88956E+01 3.3833E-01 1.24E-01 8.91E-01 0.00E+00
  28-> 81 3.25696E-01 8.86264E+00 -7.88956E+01 2.4632E-06 5.28E-06 2.00E-06 0.00E+00
  24-> 45 3.25707E-01 8.86294E+00 -7.88956E+01 0.0000E+00 0.00E+00 0.00E+00 0.00E+00
  23-> 44 3.25763E-01 8.86447E+00 -7.88955E+01 0.0000E+00 0.00E+00 0.00E+00 0.00E+00
  23-> 45 3.25796E-01 8.86537E+00 -7.88955E+01 0.0000E+00 0.00E+00 0.00E+00 0.00E+00
  27-> 81 3.25798E-01 8.86541E+00 -7.88955E+01 2.0110E-01 1.95E-01 4.09E-01 0.00E+00
  28-> 82 3.26154E-01 8.87511E+00 -7.88951E+01 7.4352E-03 2.23E-02 0.00E+00 0.00E+00
  27-> 82 3.26256E-01 8.87787E+00 -7.88950E+01 1.0655E-02 1.63E-06 3.20E-02 0.00E+00
  20-> 33 3.28288E-01 8.93317E+00 -7.88930E+01 3.5522E-05 1.05E-04 1.94E-06 0.00E+00
  20-> 34 3.28308E-01 8.93373E+00 -7.88930E+01 1.1671E-03 0.00E+00 3.50E-03 0.00E+00
  19-> 33 3.28441E-01 8.93735E+00 -7.88929E+01 1.0077E-05 0.00E+00 2.95E-05 0.00E+00
  19-> 34 3.28462E-01 8.93790E+00 -7.88928E+01 4.2097E-04 1.26E-03 0.00E+00 0.00E+00
  26-> 46 3.28631E-01 8.94249E+00 -7.88927E+01 0.0000E+00 0.00E+00 0.00E+00 0.00E+00
  25-> 46 3.28713E-01 8.94474E+00 -7.88926E+01 3.3533E-03 7.87E-03 2.19E-03 0.00E+00
  28-> 83 3.28928E-01 8.95060E+00 -7.88924E+01 4.8635E-02 1.46E-01 1.00E-06 0.00E+00
  26-> 47 3.28942E-01 8.95096E+00 -7.88924E+01 0.0000E+00 0.00E+00 0.00E+00 0.00E+00
  21-> 36 3.29010E-01 8.95281E+00 -7.88923E+01 9.5008E-03 0.00E+00 0.00E+00 2.85E-02
  25-> 47 3.29024E-01 8.95321E+00 -7.88923E+01 0.0000E+00 0.00E+00 0.00E+00 1.27E-06
  27-> 83 3.29030E-01 8.95336E+00 -7.88923E+01 4.3049E-02 1.45E-06 1.29E-01 0.00E+00
  24-> 46 3.30098E-01 8.98242E+00 -7.88912E+01 0.0000E+00 0.00E+00 0.00E+00 0.00E+00
  23-> 46 3.30187E-01 8.98485E+00 -7.88911E+01 2.0776E-03 0.00E+00 0.00E+00 6.23E-03
  18-> 33 3.30203E-01 8.98527E+00 -7.88911E+01 0.0000E+00 0.00E+00 0.00E+00 0.00E+00
  18-> 34 3.30223E-01 8.98582E+00 -7.88911E+01 0.0000E+00 0.00E+00 0.00E+00 0.00E+00
  17-> 33 3.30361E-01 8.98959E+00 -7.88909E+01 0.0000E+00 0.00E+00 0.00E+00 0.00E+00
  17-> 34 3.30382E-01 8.99015E+00 -7.88909E+01 0.0000E+00 0.00E+00 0.00E+00 0.00E+00
  24-> 47 3.30409E-01 8.99088E+00 -7.88909E+01 0.0000E+00 0.00E+00 0.00E+00 0.00E+00
  23-> 47 3.30498E-01 8.99331E+00 -7.88908E+01 4.9436E-02 7.24E-02 7.59E-02 0.00E+00
  30-> 95 3.30616E-01 8.99651E+00 -7.88907E+01 1.6458E-04 1.30E-05 1.00E-04 3.81E-04
  29-> 95 3.30709E-01 8.99904E+00 -7.88906E+01 0.0000E+00 0.00E+00 1.90E-06 0.00E+00
  22-> 41 3.32147E-01 9.03818E+00 -7.88891E+01 4.9184E-02 0.00E+00 0.00E+00 1.48E-01
  28-> 84 3.32370E-01 9.04425E+00 -7.88889E+01 0.0000E+00 0.00E+00 0.00E+00 0.00E+00
  22-> 42 3.32415E-01 9.04547E+00 -7.88889E+01 1.6565E-03 2.67E-03 2.30E-03 0.00E+00
  16-> 31 3.32466E-01 9.04685E+00 -7.88888E+01 0.0000E+00 0.00E+00 0.00E+00 0.00E+00
  27-> 84 3.32472E-01 9.04702E+00 -7.88888E+01 0.0000E+00 0.00E+00 1.10E-06 0.00E+00
  16-> 32 3.32487E-01 9.04744E+00 -7.88888E+01 0.0000E+00 0.00E+00 0.00E+00 0.00E+00
  30-> 96 3.33160E-01 9.06576E+00 -7.88881E+01 5.0785E-02 2.21E-02 1.26E-01 4.40E-03
  29-> 96 3.33253E-01 9.06828E+00 -7.88880E+01 4.2214E-04 1.84E-04 1.08E-03 2.19E-06
  15-> 31 3.33381E-01 9.07177E+00 -7.88879E+01 1.6046E-03 4.81E-03 0.00E+00 0.00E+00
  15-> 32 3.33403E-01 9.07235E+00 -7.88879E+01 3.4770E-04 2.16E-06 1.04E-03 0.00E+00
  28-> 85 3.33488E-01 9.07468E+00 -7.88878E+01 0.0000E+00 1.02E-06 0.00E+00 0.00E+00
  27-> 85 3.33590E-01 9.07744E+00 -7.88877E+01 8.4981E-04 0.00E+00 1.47E-06 2.55E-03
  26-> 48 3.35208E-01 9.12148E+00 -7.88861E+01 0.0000E+00 0.00E+00 0.00E+00 0.00E+00
  25-> 48 3.35291E-01 9.12373E+00 -7.88860E+01 7.2884E-02 1.95E-01 2.40E-02 0.00E+00
  20-> 35 3.35337E-01 9.12497E+00 -7.88860E+01 0.0000E+00 0.00E+00 0.00E+00 0.00E+00
  28-> 86 3.35487E-01 9.12906E+00 -7.88858E+01 1.2410E-02 8.48E-06 3.72E-02 0.00E+00
  19-> 35 3.35490E-01 9.12915E+00 -7.88858E+01 0.0000E+00 0.00E+00 0.00E+00 0.00E+00
  27-> 86 3.35588E-01 9.13182E+00 -7.88857E+01 9.5606E-03 2.87E-02 0.00E+00 1.35E-06
  28-> 87 3.35964E-01 9.14206E+00 -7.88853E+01 3.2801E-06 1.14E-06 0.00E+00 8.00E-06
  28-> 88 3.35982E-01 9.14253E+00 -7.88853E+01 0.0000E+00 0.00E+00 0.00E+00 0.00E+00
  27-> 87 3.36066E-01 9.14482E+00 -7.88852E+01 0.0000E+00 0.00E+00 0.00E+00 1.07E-06
  27-> 88 3.36083E-01 9.14529E+00 -7.88852E+01 2.3461E-06 1.37E-06 1.92E-06 3.74E-06
  24-> 48 3.36676E-01 9.16141E+00 -7.88846E+01 0.0000E+00 0.00E+00 0.00E+00 0.00E+00
  23-> 48 3.36765E-01 9.16384E+00 -7.88845E+01 1.0130E-06 0.00E+00 0.00E+00 3.04E-06
  28-> 89 3.37190E-01 9.17542E+00 -7.88841E+01 1.3117E-02 9.47E-03 2.99E-02 0.00E+00
  18-> 35 3.37251E-01 9.17707E+00 -7.88840E+01 1.2127E-01 3.64E-01 4.01E-06 0.00E+00
  27-> 89 3.37292E-01 9.17818E+00 -7.88840E+01 6.1658E-06 6.84E-06 1.15E-05 0.00E+00
  17-> 35 3.37410E-01 9.18139E+00 -7.88839E+01 2.9298E-01 1.50E-06 8.79E-01 0.00E+00
  14-> 31 3.38447E-01 9.20962E+00 -7.88828E+01 0.0000E+00 0.00E+00 0.00E+00 0.00E+00
  14-> 32 3.38469E-01 9.21021E+00 -7.88828E+01 0.0000E+00 0.00E+00 0.00E+00 0.00E+00
  28-> 90 3.38820E-01 9.21975E+00 -7.88825E+01 1.9444E-06 3.63E-06 2.10E-06 0.00E+00
  27-> 90 3.38921E-01 9.22252E+00 -7.88824E+01 5.6734E-01 1.21E+00 4.87E-01 0.00E+00
  28-> 91 3.39010E-01 9.22494E+00 -7.88823E+01 1.9798E-06 0.00E+00 5.73E-06 0.00E+00
  27-> 91 3.39112E-01 9.22770E+00 -7.88822E+01 1.0882E-03 1.18E-06 0.00E+00 3.26E-03
  28-> 92 3.39126E-01 9.22808E+00 -7.88822E+01 5.0473E-05 1.51E-04 0.00E+00 0.00E+00
  27-> 92 3.39227E-01 9.23084E+00 -7.88821E+01 5.6633E-04 1.54E-06 1.70E-03 0.00E+00
  26-> 49 3.40186E-01 9.25692E+00 -7.88811E+01 5.1064E-06 1.47E-05 0.00E+00 0.00E+00
  25-> 49 3.40268E-01 9.25917E+00 -7.88810E+01 6.0326E-02 1.32E-01 4.86E-02 0.00E+00
  26-> 50 3.40350E-01 9.26140E+00 -7.88809E+01 1.7902E-06 0.00E+00 5.01E-06 0.00E+00
  25-> 50 3.40433E-01 9.26365E+00 -7.88809E+01 1.1893E-05 0.00E+00 0.00E+00 3.55E-05
  13-> 31 3.40627E-01 9.26894E+00 -7.88807E+01 2.5325E-03 3.37E-06 7.59E-03 0.00E+00
  13-> 32 3.40649E-01 9.26952E+00 -7.88806E+01 2.4337E-03 7.30E-03 3.45E-06 0.00E+00
  26-> 51 3.41414E-01 9.29034E+00 -7.88799E+01 7.6897E-06 0.00E+00 2.25E-05 0.00E+00
  26-> 52 3.41419E-01 9.29048E+00 -7.88799E+01 3.1269E-06 0.00E+00 9.30E-06 0.00E+00
  25-> 51 3.41497E-01 9.29259E+00 -7.88798E+01 2.1320E-06 5.98E-06 0.00E+00 0.00E+00
  25-> 52 3.41502E-01 9.29273E+00 -7.88798E+01 1.3551E-06 1.86E-06 2.14E-06 0.00E+00
  24-> 49 3.41653E-01 9.29685E+00 -7.88796E+01 0.0000E+00 0.00E+00 0.00E+00 0.00E+00
  21-> 37 3.41665E-01 9.29717E+00 -7.88796E+01 3.3175E-04 0.00E+00 9.95E-04 0.00E+00
  23-> 49 3.41742E-01 9.29928E+00 -7.88796E+01 4.3110E-06 0.00E+00 0.00E+00 1.21E-05
  24-> 50 3.41818E-01 9.30133E+00 -7.88795E+01 0.0000E+00 0.00E+00 0.00E+00 0.00E+00
  23-> 50 3.41907E-01 9.30376E+00 -7.88794E+01 3.4132E-02 6.90E-02 3.34E-02 0.00E+00
  21-> 38 3.41991E-01 9.30604E+00 -7.88793E+01 1.5148E-04 4.54E-04 0.00E+00 0.00E+00
  28-> 93 3.42397E-01 9.31711E+00 -7.88789E+01 0.0000E+00 1.99E-06 0.00E+00 0.00E+00
  27-> 93 3.42499E-01 9.31987E+00 -7.88788E+01 4.4690E-06 0.00E+00 1.34E-05 0.00E+00
  26-> 53 3.42617E-01 9.32309E+00 -7.88787E+01 2.1200E-06 0.00E+00 6.02E-06 0.00E+00
  25-> 53 3.42700E-01 9.32534E+00 -7.88786E+01 3.8668E-04 1.04E-06 0.00E+00 1.16E-03
  22-> 43 3.42705E-01 9.32549E+00 -7.88786E+01 2.7023E-03 0.00E+00 8.11E-03 0.00E+00
  24-> 51 3.42881E-01 9.33027E+00 -7.88784E+01 2.2791E-05 6.70E-05 1.38E-06 0.00E+00
  24-> 52 3.42886E-01 9.33041E+00 -7.88784E+01 1.3143E-02 2.52E-06 3.94E-02 0.00E+00
  22-> 44 3.42925E-01 9.33146E+00 -7.88784E+01 0.0000E+00 0.00E+00 0.00E+00 0.00E+00
  22-> 45 3.42958E-01 9.33235E+00 -7.88783E+01 6.0567E-04 1.82E-03 0.00E+00 0.00E+00
  23-> 51 3.42970E-01 9.33270E+00 -7.88783E+01 1.2191E-04 0.00E+00 3.65E-04 0.00E+00
  23-> 52 3.42976E-01 9.33284E+00 -7.88783E+01 9.4165E-04 2.82E-03 3.06E-06 0.00E+00
  21-> 39 3.43743E-01 9.35371E+00 -7.88776E+01 4.5374E-02 9.41E-02 4.21E-02 0.00E+00
  24-> 53 3.44084E-01 9.36301E+00 -7.88772E+01 1.7103E-06 0.00E+00 5.13E-06 0.00E+00
  21-> 40 3.44134E-01 9.36437E+00 -7.88772E+01 2.7678E-02 1.99E-02 6.32E-02 0.00E+00
  28-> 94 3.44136E-01 9.36442E+00 -7.88772E+01 7.7120E-03 2.31E-02 2.09E-06 0.00E+00
  23-> 53 3.44174E-01 9.36544E+00 -7.88771E+01 1.2090E-04 3.62E-04 1.05E-06 0.00E+00
  27-> 94 3.44238E-01 9.36718E+00 -7.88771E+01 2.7263E-02 0.00E+00 8.18E-02 9.16E-06
  26-> 54 3.44314E-01 9.36926E+00 -7.88770E+01 0.0000E+00 0.00E+00 1.21E-06 0.00E+00
  25-> 54 3.44397E-01 9.37152E+00 -7.88769E+01 0.0000E+00 0.00E+00 0.00E+00 2.04E-06
  26-> 55 3.45071E-01 9.38985E+00 -7.88762E+01 0.0000E+00 0.00E+00 0.00E+00 0.00E+00
  25-> 55 3.45153E-01 9.39210E+00 -7.88761E+01 0.0000E+00 0.00E+00 0.00E+00 0.00E+00
  24-> 54 3.45781E-01 9.40919E+00 -7.88755E+01 1.6418E-06 1.21E-06 3.70E-06 0.00E+00
  23-> 54 3.45871E-01 9.41162E+00 -7.88754E+01 4.8590E-03 7.48E-03 7.10E-03 0.00E+00
  24-> 55 3.46538E-01 9.42978E+00 -7.88748E+01 1.8862E-02 5.66E-02 2.66E-06 0.00E+00
  23-> 55 3.46627E-01 9.43221E+00 -7.88747E+01 3.4658E-02 0.00E+00 1.04E-01 0.00E+00
  22-> 46 3.47349E-01 9.45184E+00 -7.88739E+01 1.5432E-01 2.88E-01 1.75E-01 0.00E+00
  26-> 56 3.47561E-01 9.45761E+00 -7.88737E+01 0.0000E+00 0.00E+00 0.00E+00 0.00E+00
  25-> 56 3.47644E-01 9.45986E+00 -7.88737E+01 0.0000E+00 0.00E+00 0.00E+00 0.00E+00
  22-> 47 3.47660E-01 9.46030E+00 -7.88736E+01 1.4521E-01 0.00E+00 0.00E+00 4.36E-01
  24-> 56 3.49028E-01 9.49754E+00 -7.88723E+01 2.6672E-03 0.00E+00 8.00E-03 0.00E+00
  23-> 56 3.49118E-01 9.49997E+00 -7.88722E+01 5.6685E-02 1.70E-01 0.00E+00 0.00E+00
  28-> 95 3.50928E-01 9.54925E+00 -7.88704E+01 3.3359E-04 6.63E-04 2.66E-04 7.21E-05
  27-> 95 3.51030E-01 9.55201E+00 -7.88703E+01 0.0000E+00 0.00E+00 0.00E+00 0.00E+00
  26-> 57 3.51828E-01 9.57373E+00 -7.88695E+01 0.0000E+00 1.01E-06 1.30E-06 0.00E+00
  25-> 57 3.51911E-01 9.57598E+00 -7.88694E+01 0.0000E+00 0.00E+00 0.00E+00 0.00E+00
  26-> 58 3.52179E-01 9.58328E+00 -7.88691E+01 0.0000E+00 0.00E+00 1.79E-06 0.00E+00
  26-> 59 3.52215E-01 9.58426E+00 -7.88691E+01 8.3546E-02 1.71E-04 2.50E-01 0.00E+00
  26-> 60 3.52241E-01 9.58495E+00 -7.88691E+01 3.0814E-01 1.26E-01 7.99E-01 0.00E+00
  26-> 61 3.52259E-01 9.58545E+00 -7.88690E+01 3.1777E-03 8.91E-03 6.26E-04 0.00E+00
  25-> 58 3.52262E-01 9.58553E+00 -7.88690E+01 0.0000E+00 0.00E+00 0.00E+00 0.00E+00
  25-> 59 3.52298E-01 9.58651E+00 -7.88690E+01 3.1023E-04 9.31E-04 0.00E+00 0.00E+00
  25-> 60 3.52323E-01 9.58720E+00 -7.88690E+01 2.2676E-06 0.00E+00 6.47E-06 0.00E+00
  25-> 61 3.52341E-01 9.58770E+00 -7.88690E+01 7.1422E-04 0.00E+00 2.14E-03 0.00E+00
  26-> 62 3.53002E-01 9.60567E+00 -7.88683E+01 0.0000E+00 0.00E+00 0.00E+00 0.00E+00
  25-> 62 3.53084E-01 9.60792E+00 -7.88682E+01 1.7496E-03 4.93E-03 3.17E-04 0.00E+00
  24-> 57 3.53295E-01 9.61366E+00 -7.88680E+01 1.9162E-03 5.75E-03 0.00E+00 0.00E+00
  23-> 57 3.53385E-01 9.61609E+00 -7.88679E+01 6.8986E-04 0.00E+00 2.07E-03 0.00E+00
  28-> 96 3.53473E-01 9.61849E+00 -7.88678E+01 3.2749E-02 0.00E+00 3.29E-03 9.50E-02
  27-> 96 3.53575E-01 9.62126E+00 -7.88677E+01 8.4118E-05 3.09E-06 0.00E+00 2.49E-04
  24-> 58 3.53646E-01 9.62321E+00 -7.88677E+01 1.4769E-02 6.32E-06 4.43E-02 0.00E+00
  24-> 59 3.53682E-01 9.62418E+00 -7.88676E+01 4.4674E-06 0.00E+00 0.00E+00 1.30E-05
  24-> 60 3.53708E-01 9.62488E+00 -7.88676E+01 3.1665E-03 0.00E+00 3.88E-06 9.50E-03
  24-> 61 3.53726E-01 9.62538E+00 -7.88676E+01 4.4652E-06 0.00E+00 5.73E-06 6.97E-06
  23-> 58 3.53736E-01 9.62564E+00 -7.88676E+01 2.9177E-03 8.75E-03 0.00E+00 0.00E+00
  23-> 59 3.53772E-01 9.62661E+00 -7.88675E+01 0.0000E+00 0.00E+00 0.00E+00 0.00E+00
  23-> 60 3.53797E-01 9.62731E+00 -7.88675E+01 0.0000E+00 2.23E-06 0.00E+00 0.00E+00
  23-> 61 3.53815E-01 9.62781E+00 -7.88675E+01 0.0000E+00 1.08E-06 0.00E+00 0.00E+00
  22-> 48 3.53927E-01 9.63083E+00 -7.88674E+01 6.3476E-03 2.95E-03 1.61E-02 0.00E+00
  26-> 63 3.54081E-01 9.63503E+00 -7.88672E+01 0.0000E+00 0.00E+00 1.13E-06 0.00E+00
  25-> 63 3.54164E-01 9.63728E+00 -7.88671E+01 2.3025E-05 1.62E-06 0.00E+00 6.65E-05
  21-> 41 3.54401E-01 9.64373E+00 -7.88669E+01 8.6167E-02 9.71E-02 1.61E-01 0.00E+00
  24-> 62 3.54469E-01 9.64559E+00 -7.88668E+01 1.6543E-06 0.00E+00 4.85E-06 0.00E+00
  23-> 62 3.54558E-01 9.64803E+00 -7.88667E+01 1.5833E-04 0.00E+00 0.00E+00 4.75E-04
  21-> 42 3.54669E-01 9.65103E+00 -7.88666E+01 1.2784E-03 0.00E+00 0.00E+00 3.84E-03
  16-> 33 3.55409E-01 9.67117E+00 -7.88659E+01 8.7969E-04 2.64E-03 0.00E+00 0.00E+00
  16-> 34 3.55429E-01 9.67173E+00 -7.88659E+01 1.5886E-04 1.71E-06 4.75E-04 0.00E+00
  24-> 63 3.55548E-01 9.67496E+00 -7.88657E+01 3.5266E-06 1.37E-06 9.21E-06 0.00E+00
  23-> 63 3.55638E-01 9.67739E+00 -7.88657E+01 4.7678E-02 8.93E-02 5.38E-02 0.00E+00
  15-> 33 3.56325E-01 9.69609E+00 -7.88650E+01 0.0000E+00 0.00E+00 0.00E+00 0.00E+00
  15-> 34 3.56345E-01 9.69665E+00 -7.88650E+01 0.0000E+00 0.00E+00 0.00E+00 0.00E+00
  26-> 64 3.56649E-01 9.70491E+00 -7.88646E+01 1.3220E-06 0.00E+00 3.94E-06 0.00E+00
  25-> 64 3.56731E-01 9.70716E+00 -7.88646E+01 2.6046E-03 0.00E+00 1.10E-06 7.81E-03
  20-> 36 3.57900E-01 9.73895E+00 -7.88634E+01 9.6387E-02 2.89E-01 2.80E-06 0.00E+00
  19-> 36 3.58053E-01 9.74312E+00 -7.88632E+01 2.2842E-01 1.05E-06 6.85E-01 0.00E+00
  24-> 64 3.58116E-01 9.74483E+00 -7.88632E+01 2.3683E-06 4.29E-06 2.79E-06 0.00E+00
  23-> 64 3.58205E-01 9.74726E+00 -7.88631E+01 6.1943E-04 1.85E-03 7.10E-06 0.00E+00
  22-> 49 3.58904E-01 9.76627E+00 -7.88624E+01 3.5677E-03 2.21E-03 8.49E-03 0.00E+00
  22-> 50 3.59068E-01 9.77075E+00 -7.88622E+01 2.0834E-02 0.00E+00 0.00E+00 6.25E-02
  26-> 65 3.59540E-01 9.78357E+00 -7.88618E+01 0.0000E+00 0.00E+00 0.00E+00 0.00E+00
  25-> 65 3.59622E-01 9.78582E+00 -7.88617E+01 1.0644E-02 1.65E-02 1.54E-02 0.00E+00
  18-> 36 3.59814E-01 9.79104E+00 -7.88615E+01 0.0000E+00 0.00E+00 0.00E+00 0.00E+00
  17-> 36 3.59973E-01 9.79536E+00 -7.88613E+01 0.0000E+00 0.00E+00 0.00E+00 0.00E+00
  22-> 51 3.60132E-01 9.79969E+00 -7.88612E+01 0.0000E+00 0.00E+00 0.00E+00 0.00E+00
  22-> 52 3.60137E-01 9.79983E+00 -7.88612E+01 0.0000E+00 1.39E-06 0.00E+00 0.00E+00
  24-> 65 3.61007E-01 9.82350E+00 -7.88603E+01 0.0000E+00 0.00E+00 1.86E-06 0.00E+00
  23-> 65 3.61096E-01 9.82593E+00 -7.88602E+01 3.0259E-06 0.00E+00 0.00E+00 8.22E-06
  22-> 53 3.61335E-01 9.83243E+00 -7.88600E+01 2.5147E-06 0.00E+00 4.11E-06 3.08E-06
  14-> 33 3.61391E-01 9.83395E+00 -7.88599E+01 2.1157E-03 3.81E-06 6.34E-03 0.00E+00
  14-> 34 3.61411E-01 9.83450E+00 -7.88599E+01 2.0436E-03 6.13E-03 4.09E-06 0.00E+00
  16-> 35 3.62458E-01 9.86297E+00 -7.88588E+01 0.0000E+00 0.00E+00 0.00E+00 0.00E+00
  22-> 54 3.63032E-01 9.87861E+00 -7.88583E+01 5.6023E-03 0.00E+00 1.20E-06 1.68E-02
  15-> 35 3.63373E-01 9.88789E+00 -7.88579E+01 1.4878E-02 4.46E-02 0.00E+00 0.00E+00
  13-> 33 3.63571E-01 9.89326E+00 -7.88577E+01 0.0000E+00 0.00E+00 0.00E+00 0.00E+00
  13-> 34 3.63591E-01 9.89382E+00 -7.88577E+01 0.0000E+00 0.00E+00 0.00E+00 0.00E+00
  22-> 55 3.63789E-01 9.89920E+00 -7.88575E+01 0.0000E+00 0.00E+00 1.49E-06 0.00E+00
  21-> 43 3.64959E-01 9.93104E+00 -7.88563E+01 0.0000E+00 0.00E+00 0.00E+00 0.00E+00
  21-> 44 3.65179E-01 9.93702E+00 -7.88561E+01 0.0000E+00 0.00E+00 0.00E+00 0.00E+00
  21-> 45 3.65211E-01 9.93791E+00 -7.88561E+01 0.0000E+00 0.00E+00 0.00E+00 0.00E+00
  26-> 66 3.66190E-01 9.96454E+00 -7.88551E+01 1.3342E-06 2.71E-06 1.26E-06 0.00E+00
  25-> 66 3.66273E-01 9.96679E+00 -7.88550E+01 1.0121E-06 3.01E-06 0.00E+00 0.00E+00
  22-> 56 3.66279E-01 9.96696E+00 -7.88550E+01 0.0000E+00 0.00E+00 0.00E+00 0.00E+00
  26-> 67 3.67233E-01 9.99293E+00 -7.88541E+01 1.0848E-02 3.25E-02 1.10E-06 0.00E+00
  25-> 67 3.67316E-01 9.99518E+00 -7.88540E+01 2.3808E-02 5.87E-06 7.14E-02 0.00E+00
  24-> 66 3.67658E-01 1.00045E+01 -7.88536E+01 1.5397E-06 1.02E-06 3.59E-06 0.00E+00
  26-> 68 3.67663E-01 1.00046E+01 -7.88536E+01 0.0000E+00 0.00E+00 0.00E+00 0.00E+00
  25-> 68 3.67746E-01 1.00069E+01 -7.88536E+01 7.5447E-05 1.25E-04 1.01E-04 0.00E+00
  23-> 66 3.67747E-01 1.00069E+01 -7.88535E+01 1.2954E-03 1.79E-03 2.10E-03 0.00E+00
  26-> 69 3.67792E-01 1.00081E+01 -7.88535E+01 7.3560E-06 1.48E-05 7.28E-06 0.00E+00
  25-> 69 3.67874E-01 1.00104E+01 -7.88534E+01 1.0366E-01 2.35E-01 7.62E-02 0.00E+00
  14-> 35 3.68439E-01 1.00257E+01 -7.88529E+01 0.0000E+00 0.00E+00 0.00E+00 0.00E+00
  24-> 67 3.68701E-01 1.00329E+01 -7.88526E+01 6.2214E-06 2.09E-06 1.66E-05 0.00E+00
  23-> 67 3.68790E-01 1.00353E+01 -7.88525E+01 0.0000E+00 0.00E+00 0.00E+00 0.00E+00
  24-> 68 3.69130E-01 1.00445E+01 -7.88522E+01 1.1620E-04 3.01E-04 4.77E-05 0.00E+00
  23-> 68 3.69220E-01 1.00470E+01 -7.88521E+01 2.0306E-04 3.40E-06 6.06E-04 0.00E+00
  24-> 69 3.69259E-01 1.00480E+01 -7.88520E+01 1.3209E-05 0.00E+00 3.96E-05 0.00E+00
  23-> 69 3.69348E-01 1.00505E+01 -7.88519E+01 1.6800E-05 3.99E-06 0.00E+00 4.58E-05
  21-> 46 3.69602E-01 1.00574E+01 -7.88517E+01 1.9637E-06 0.00E+00 0.00E+00 5.89E-06
  21-> 47 3.69913E-01 1.00659E+01 -7.88514E+01 2.4729E-05 5.31E-05 2.10E-05 0.00E+00
  26-> 70 3.70247E-01 1.00749E+01 -7.88510E+01 1.0234E-02 0.00E+00 3.07E-02 0.00E+00
  25-> 70 3.70330E-01 1.00772E+01 -7.88510E+01 3.0423E-02 9.13E-02 0.00E+00 0.00E+00
  22-> 57 3.70546E-01 1.00831E+01 -7.88508E+01 0.0000E+00 0.00E+00 0.00E+00 0.00E+00
  20-> 37 3.70555E-01 1.00833E+01 -7.88507E+01 0.0000E+00 0.00E+00 0.00E+00 0.00E+00
  13-> 35 3.70619E-01 1.00851E+01 -7.88507E+01 1.8695E-01 0.00E+00 5.61E-01 0.00E+00
  19-> 37 3.70708E-01 1.00875E+01 -7.88506E+01 3.3878E-03 0.00E+00 0.00E+00 1.02E-02
  20-> 38 3.70881E-01 1.00922E+01 -7.88504E+01 3.4308E-03 0.00E+00 0.00E+00 1.03E-02
  22-> 58 3.70897E-01 1.00926E+01 -7.88504E+01 0.0000E+00 0.00E+00 0.00E+00 0.00E+00
  22-> 59 3.70933E-01 1.00936E+01 -7.88504E+01 3.8675E-05 1.16E-04 0.00E+00 0.00E+00
  22-> 60 3.70959E-01 1.00943E+01 -7.88503E+01 0.0000E+00 0.00E+00 1.68E-06 0.00E+00
  22-> 61 3.70977E-01 1.00948E+01 -7.88503E+01 2.9327E-04 0.00E+00 8.80E-04 0.00E+00
  19-> 38 3.71034E-01 1.00964E+01 -7.88503E+01 0.0000E+00 0.00E+00 0.00E+00 0.00E+00
  24-> 70 3.71715E-01 1.01149E+01 -7.88496E+01 0.0000E+00 1.21E-06 1.63E-06 0.00E+00
  22-> 62 3.71720E-01 1.01150E+01 -7.88496E+01 6.4354E-03 1.23E-02 6.98E-03 0.00E+00
  23-> 70 3.71804E-01 1.01173E+01 -7.88495E+01 0.0000E+00 0.00E+00 0.00E+00 0.00E+00
  18-> 37 3.72469E-01 1.01354E+01 -7.88488E+01 2.1945E-06 2.29E-06 4.29E-06 0.00E+00
  17-> 37 3.72628E-01 1.01397E+01 -7.88487E+01 7.6733E-01 8.26E-01 1.48E+00 0.00E+00
  20-> 39 3.72633E-01 1.01399E+01 -7.88487E+01 0.0000E+00 0.00E+00 0.00E+00 0.00E+00
  19-> 39 3.72786E-01 1.01440E+01 -7.88485E+01 0.0000E+00 0.00E+00 0.00E+00 0.00E+00
  18-> 38 3.72795E-01 1.01443E+01 -7.88485E+01 6.9850E-01 4.14E-01 1.68E+00 0.00E+00
  22-> 63 3.72799E-01 1.01444E+01 -7.88485E+01 1.8592E-01 0.00E+00 1.45E-06 5.58E-01
  17-> 38 3.72954E-01 1.01486E+01 -7.88483E+01 1.7632E-06 0.00E+00 4.49E-06 0.00E+00
  20-> 40 3.73024E-01 1.01505E+01 -7.88483E+01 0.0000E+00 0.00E+00 0.00E+00 0.00E+00
  19-> 40 3.73178E-01 1.01547E+01 -7.88481E+01 0.0000E+00 0.00E+00 0.00E+00 0.00E+00
  18-> 39 3.74547E-01 1.01919E+01 -7.88467E+01 5.4277E-03 1.63E-02 0.00E+00 0.00E+00
  17-> 39 3.74706E-01 1.01963E+01 -7.88466E+01 3.7921E-03 0.00E+00 1.14E-02 0.00E+00
  18-> 40 3.74939E-01 1.02026E+01 -7.88464E+01 5.0732E-03 1.52E-02 0.00E+00 0.00E+00
  17-> 40 3.75098E-01 1.02069E+01 -7.88462E+01 1.2966E-02 0.00E+00 3.89E-02 0.00E+00
[...]
   14      6.88142236970000     8.49501890780000     3.32004968494000
   15      8.10913109400000     7.78578719350000     3.32049496353000
   16      8.10903229340000     6.36762218820000     3.32052642351000
   17      6.88120430320000     5.65858825360000     3.32011734311000
   18      5.65360212990000     7.78597846870000     3.32044997532500
   19      6.88146811260000     9.60891470650000     3.31567806521500
   20      9.07380268720000     8.34297365550000     3.31692543212500
   21      9.07360038890000     5.81041253910000     3.31696052482000
   22      6.88111035240000     4.54468617010000     3.31577461104000
   23      4.68877802150000     5.81073780180000     3.31692632113000
   24      4.68896869570000     8.34329846500000     3.31685789260500
 length scales= 22.676713594628 22.676713594628 56.691783986569 bohr
              = 12.000000000000 12.000000000000 30.000000000000 angstroms
 prteigrs : about to open file C6H6_1o_DS2_EIG
 Eigenvalues (hartree) for nkpt=   1  k points:
 kpt#   1, nband= 96, wtk=  1.00000, kpt=  0.0000  0.0000  0.0000 (reduced coord)
  -0.75536   -0.75285   -0.65606   -0.65592   -0.65369   -0.65355   -0.52680   -0.52674
  -0.52479   -0.52473   -0.45667   -0.45440   -0.39572   -0.39354   -0.38847   -0.38756
  -0.36251   -0.36235   -0.36059   -0.36044   -0.33155   -0.30929   -0.29213   -0.29204
  -0.29066   -0.29057   -0.23417   -0.23407   -0.21385   -0.21376   -0.05509   -0.05507
  -0.03215   -0.03213   -0.02510   -0.00254    0.01012    0.01044    0.01220    0.01259
   0.02285    0.02312    0.03341    0.03363    0.03367    0.03806    0.03837    0.04463
   0.04961    0.04978    0.05084    0.05084    0.05204    0.05374    0.05450    0.05699
   0.06125    0.06160    0.06164    0.06167    0.06168    0.06243    0.06351    0.06607
   0.06897    0.07562    0.07666    0.07709    0.07722    0.07967    0.08628    0.08650
   0.08764    0.08786    0.08855    0.08967    0.09013    0.09095    0.09130    0.09134
   0.09162    0.09208    0.09486    0.09830    0.09942    0.10142    0.10189    0.10191
   0.10312    0.10475    0.10494    0.10505    0.10833    0.11006    0.11686    0.11940

== END DATASET(S) ==============================================================
================================================================================
  
 -outvars: echo values of variables after computation  --------
            acell      2.2676713595E+01  2.2676713595E+01  5.6691783987E+01 Bohr
              amu      1.00794000E+00  1.20110000E+01
        boxcenter      0.00000000E+00  0.00000000E+00  0.00000000E+00
           diecut1     2.20000000E+00 Hartree
           diecut2     1.44000000E+02 Hartree
           diemac      1.00000000E+00
           diemix      5.00000000E-01
             ecut      3.60000000E+01 Hartree
           etotal1    -7.9221296521E+01
            fcart1     1.1582113303E-02  6.8525695534E-03 -1.2382269528E-04
                      -7.4905660495E-06 -1.3601461544E-02 -1.6554971080E-04
                      -1.1563614702E-02 -6.8296926858E-03 -1.2410840041E-04
                      -1.1594791878E-02  6.8649624098E-03 -1.2225892220E-04
                      -5.8298707549E-06  1.3595663634E-02 -1.6356901444E-04
                       1.1545094929E-02 -6.8322611423E-03 -1.2646025133E-04
                       3.3955724151E-06 -1.2815373968E-02 -4.6766887788E-05
                      -1.1125825230E-02 -6.4853265684E-03 -1.5055152923E-05
                      -1.1095610340E-02  6.4578611419E-03 -1.5675413691E-05
                       1.9600269122E-06  1.2818218837E-02 -4.7419772094E-05
                       1.1118013583E-02  6.4671022552E-03 -1.4666524820E-05
                       1.1142585174E-02 -6.4922619220E-03 -1.4952235396E-05
                       1.1582113303E-02  6.8525695534E-03  1.2382269528E-04
                      -7.4905660495E-06 -1.3601461544E-02  1.6554971080E-04
                      -1.1563614702E-02 -6.8296926858E-03  1.2410840041E-04
                      -1.1594791878E-02  6.8649624098E-03  1.2225892220E-04
                      -5.8298707549E-06  1.3595663634E-02  1.6356901444E-04
                       1.1545094929E-02 -6.8322611423E-03  1.2646025133E-04
                       3.3955724151E-06 -1.2815373968E-02  4.6766887788E-05
                      -1.1125825230E-02 -6.4853265684E-03  1.5055152923E-05
                      -1.1095610340E-02  6.4578611419E-03  1.5675413691E-05
                       1.9600269122E-06  1.2818218837E-02  4.7419772094E-05
                       1.1118013583E-02  6.4671022552E-03  1.4666524820E-05
                       1.1142585174E-02 -6.4922619220E-03  1.4952235396E-05
-          fftalg         112
           getden1          0
           getden2          1
           getwfk1          0
           getwfk2          1
             iscf1          7
             iscf2         -1
           istwfk        2
           jdtset        1    2
           kptopt           0
P           mkmem           1
            natom          24
            nband1         48
            nband2         96
           ndtset           2
            ngfft         125     125     320
             nkpt           1
            nstep          25
             nsym           2
           ntypat           2
              occ1     2.000000  2.000000  2.000000  2.000000  2.000000  2.000000
                       2.000000  2.000000  2.000000  2.000000  2.000000  2.000000
                       2.000000  2.000000  2.000000  2.000000  2.000000  2.000000
                       2.000000  2.000000  2.000000  2.000000  2.000000  2.000000
                       2.000000  2.000000  2.000000  2.000000  2.000000  2.000000
                       0.000000  0.000000  0.000000  0.000000  0.000000  0.000000
                       0.000000  0.000000  0.000000  0.000000  0.000000  0.000000
                       0.000000  0.000000  0.000000  0.000000  0.000000  0.000000
              occ2     2.000000  2.000000  2.000000  2.000000  2.000000  2.000000
                       2.000000  2.000000  2.000000  2.000000  2.000000  2.000000
                       2.000000  2.000000  2.000000  2.000000  2.000000  2.000000
                       2.000000  2.000000  2.000000  2.000000  2.000000  2.000000
                       2.000000  2.000000  2.000000  2.000000  2.000000  2.000000
                       0.000000  0.000000  0.000000  0.000000  0.000000  0.000000
                       0.000000  0.000000  0.000000  0.000000  0.000000  0.000000
                       0.000000  0.000000  0.000000  0.000000  0.000000  0.000000
                       0.000000  0.000000  0.000000  0.000000  0.000000  0.000000
                       0.000000  0.000000  0.000000  0.000000  0.000000  0.000000
                       0.000000  0.000000  0.000000  0.000000  0.000000  0.000000
                       0.000000  0.000000  0.000000  0.000000  0.000000  0.000000
                       0.000000  0.000000  0.000000  0.000000  0.000000  0.000000
                       0.000000  0.000000  0.000000  0.000000  0.000000  0.000000
                       0.000000  0.000000  0.000000  0.000000  0.000000  0.000000
                       0.000000  0.000000  0.000000  0.000000  0.000000  0.000000
          spgroup           6
           strten1     2.0289874955E-05  2.0470861842E-05  1.4920965459E-08
                       0.0000000000E+00  0.0000000000E+00 -2.0667450770E-10
           symrel      1  0  0   0  1  0   0  0  1       1  0  0   0  1  0   0  0 -1
            tnons      0.0000000  0.0000000  0.0000000     0.0000000  0.0000000  0.0977678
           tolwfr1     1.00000000E-12
           tolwfr2     1.00000000E-06
            typat      2  2  2  2  2  2  1  1  1  1  1  1  2  2  2  2  2  2  1  1
                       1  1  1  1
           xangst      5.6534760705E+00  6.3678124340E+00 -3.8745786937E-01
                       6.8814223697E+00  8.4950189078E+00 -3.8701538671E-01
                       8.1091310940E+00  7.7857871935E+00 -3.8746066530E-01
                       8.1090322934E+00  6.3676221882E+00 -3.8749212528E-01
                       6.8812043032E+00  5.6585882536E+00 -3.8708304488E-01
                       5.6536021299E+00  7.7859784687E+00 -3.8741567710E-01
                       6.8814681126E+00  9.6089147065E+00 -3.8264376699E-01
                       9.0738026872E+00  8.3429736555E+00 -3.8389113390E-01
                       9.0736003889E+00  5.8104125391E+00 -3.8392622659E-01
                       6.8811103524E+00  4.5446861701E+00 -3.8274031281E-01
                       4.6887780215E+00  5.8107378018E+00 -3.8389202290E-01
                       4.6889686957E+00  8.3432984650E+00 -3.8382359438E-01
                       5.6534760705E+00  6.3678124340E+00  3.3204921676E+00
                       6.8814223697E+00  8.4950189078E+00  3.3200496849E+00
                       8.1091310940E+00  7.7857871935E+00  3.3204949635E+00
                       8.1090322934E+00  6.3676221882E+00  3.3205264235E+00
                       6.8812043032E+00  5.6585882536E+00  3.3201173431E+00
                       5.6536021299E+00  7.7859784687E+00  3.3204499753E+00
                       6.8814681126E+00  9.6089147065E+00  3.3156780652E+00
                       9.0738026872E+00  8.3429736555E+00  3.3169254321E+00
                       9.0736003889E+00  5.8104125391E+00  3.3169605248E+00
                       6.8811103524E+00  4.5446861701E+00  3.3157746110E+00
                       4.6887780215E+00  5.8107378018E+00  3.3169263211E+00
                       4.6889686957E+00  8.3432984650E+00  3.3168578926E+00
            xcart      1.0683521472E+01  1.2033421566E+01 -7.3218926114E-01
                       1.3004003683E+01  1.6053259229E+01 -7.3135309009E-01
                       1.5324036943E+01  1.4713005525E+01 -7.3219454468E-01
                       1.5323850237E+01  1.2033062053E+01 -7.3225399543E-01
                       1.3003591597E+01  1.0693182098E+01 -7.3148094551E-01
                       1.0683759690E+01  1.4713366982E+01 -7.3210952930E-01
                       1.3004090125E+01  1.8158217230E+01 -7.2309192606E-01
                       1.7147002063E+01  1.5765935343E+01 -7.2544910790E-01
                       1.7146619774E+01  1.0980088418E+01 -7.2551542349E-01
                       1.3003414056E+01  8.5882122214E+00 -7.2327437123E-01
                       8.8605063585E+00  1.0980703075E+01 -7.2545078788E-01
                       8.8608666805E+00  1.5766549144E+01 -7.2532147671E-01
                       1.0683521472E+01  1.2033421566E+01  6.2748208232E+00
                       1.3004003683E+01  1.6053259229E+01  6.2739846521E+00
                       1.5324036943E+01  1.4713005525E+01  6.2748261067E+00
                       1.5323850237E+01  1.2033062053E+01  6.2748855574E+00
                       1.3003591597E+01  1.0693182098E+01  6.2741125075E+00
                       1.0683759690E+01  1.4713366982E+01  6.2747410913E+00
                       1.3004090125E+01  1.8158217230E+01  6.2657234881E+00
                       1.7147002063E+01  1.5765935343E+01  6.2680806699E+00
                       1.7146619774E+01  1.0980088418E+01  6.2681469855E+00
                       1.3003414056E+01  8.5882122214E+00  6.2659059332E+00
                       8.8605063585E+00  1.0980703075E+01  6.2680823499E+00
                       8.8608666805E+00  1.5766549144E+01  6.2679530387E+00
             xred      4.7112300588E-01  5.3065103617E-01 -1.2915262312E-02
                       5.7345186414E-01  7.0791824232E-01 -1.2900512890E-02
                       6.7576092450E-01  6.4881559946E-01 -1.2915355510E-02
                       6.7575269112E-01  5.3063518235E-01 -1.2916404176E-02
                       5.7343369193E-01  4.7154902113E-01 -1.2902768163E-02
                       4.7113351082E-01  6.4883153906E-01 -1.2913855903E-02
                       5.7345567605E-01  8.0074289221E-01 -1.2754792233E-02
                       7.5615022393E-01  6.9524780462E-01 -1.2796371130E-02
                       7.5613336574E-01  4.8420104492E-01 -1.2797540886E-02
                       5.7342586270E-01  3.7872384751E-01 -1.2758010427E-02
                       3.9073150179E-01  4.8422815015E-01 -1.2796400763E-02
                       3.9074739131E-01  6.9527487208E-01 -1.2794119813E-02
                       4.7112300588E-01  5.3065103617E-01  1.1068307225E-01
                       5.7345186414E-01  7.0791824232E-01  1.1066832283E-01
                       6.7576092450E-01  6.4881559946E-01  1.1068316545E-01
                       6.7575269112E-01  5.3063518235E-01  1.1068421412E-01
                       5.7343369193E-01  4.7154902113E-01  1.1067057810E-01
                       4.7113351082E-01  6.4883153906E-01  1.1068166584E-01
                       5.7345567605E-01  8.0074289221E-01  1.1052260217E-01
                       7.5615022393E-01  6.9524780462E-01  1.1056418107E-01
                       7.5613336574E-01  4.8420104492E-01  1.1056535083E-01
                       5.7342586270E-01  3.7872384751E-01  1.1052582037E-01
                       3.9073150179E-01  4.8422815015E-01  1.1056421070E-01
                       3.9074739131E-01  6.9527487208E-01  1.1056192975E-01
            znucl        1.00000    6.00000

================================================================================

- Total cpu        time (s,m,h):      46908.2      781.80     13.030
- Total wall clock time (s,m,h):      46986.7      783.11     13.052
-
- For major independent code sections, cpu and wall times (sec),
-  as well as % of the time and number of calls for node 0-
-<BEGIN_TIMER mpi_nprocs = 1, omp_nthreads = 1, mpi_rank = 0>
- cpu_time =        46908.2, wall_time =        46986.7
-
- routine                        cpu     %       wall     %      number of calls  Gflops    Speedup Efficacity
-                                                                  (-1=no count)
- fourdp                       825.734   1.8    826.850   1.8           4023      -1.00        1.00       1.00
- fourwf%(pot)                 486.219   1.0    485.758   1.0           6091      -1.00        1.00       1.00
- projbd                       292.406   0.6    292.346   0.6           7286      -1.00        1.00       1.00
- others (110)                 205.391   0.4    197.402   0.4             -1      -1.00        1.04       1.04
-<END_TIMER>
-
- subtotal                    1809.750   3.9   1802.356   3.8                                  1.00       1.00

- For major independent code sections, cpu and wall times (sec),
- as well as % of the total time and number of calls 

-<BEGIN_TIMER mpi_nprocs = 1, omp_nthreads = 1, mpi_rank = world>
- cpu_time =       46908.2, wall_time =       46986.7
-
- routine                         cpu     %       wall     %      number of calls Gflops    Speedup Efficacity
-                                                                  (-1=no count)
- fourdp                       825.734   1.8    826.850   1.8           4023      -1.00        1.00       1.00
- fourwf%(pot)                 486.219   1.0    485.758   1.0           6091      -1.00        1.00       1.00
- projbd                       292.406   0.6    292.346   0.6           7286      -1.00        1.00       1.00
- others (110)                 205.391   0.4    197.402   0.4             -1      -1.00        1.04       1.04
-<END_TIMER>

- subtotal                    1809.750   3.9   1802.356   3.8                                  1.00       1.00

================================================================================

 Suggested references for the acknowledgment of ABINIT usage.

 The users of ABINIT have little formal obligations with respect to the ABINIT group
 (those specified in the GNU General Public License, http://www.gnu.org/copyleft/gpl.txt).
 However, it is common practice in the scientific literature,
 to acknowledge the efforts of people that have made the research possible.
 In this spirit, please find below suggested citations of work written by ABINIT developers,
 corresponding to implementations inside of ABINIT that you have used in the present run.
 Note also that it will be of great value to readers of publications presenting these results,
 to read papers enabling them to understand the theoretical formalism and details
 of the ABINIT implementation.
 For information on why they are suggested, see also https://www.abinit.org/about/?text=acknowledgments.
-
- [1] Recent developments in the ABINIT software package.
- Computer Phys. Comm. 205, 106 (2016).
- X.Gonze, F.Jollet, F.Abreu Araujo, D.Adams, B.Amadon, T.Applencourt,
- C.Audouze, J.-M.Beuken, J.Bieder, A.Bokhanchuk, E.Bousquet, F.Bruneval
- D.Caliste, M.Cote, F.Dahm, F.Da Pieve, M.Delaveau, M.Di Gennaro,
- B.Dorado, C.Espejo, G.Geneste, L.Genovese, A.Gerossier, M.Giantomassi,
- Y.Gillet, D.R.Hamann, L.He, G.Jomard, J.Laflamme Janssen, S.Le Roux,
- A.Levitt, A.Lherbier, F.Liu, I.Lukacevic, A.Martin, C.Martins,
- M.J.T.Oliveira, S.Ponce, Y.Pouillon, T.Rangel, G.-M.Rignanese,
- A.H.Romero, B.Rousseau, O.Rubel, A.A.Shukri, M.Stankovski, M.Torrent,
- M.J.Van Setten, B.Van Troeye, M.J.Verstraete, D.Waroquier, J.Wiktor,
- B.Xue, A.Zhou, J.W.Zwanziger.
- Comment : the fourth generic paper describing the ABINIT project.
- Note that a version of this paper, that is not formatted for Computer Phys. Comm. 
- is available at https://www.abinit.org/about/ABINIT16.pdf .
- The licence allows the authors to put it on the Web.
-
- [2] ABINIT : First-principles approach of materials and nanosystem properties.
- Computer Phys. Comm. 180, 2582-2615 (2009).
- X. Gonze, B. Amadon, P.-M. Anglade, J.-M. Beuken, F. Bottin, P. Boulanger, F. Bruneval,
- D. Caliste, R. Caracas, M. Cote, T. Deutsch, L. Genovese, Ph. Ghosez, M. Giantomassi
- S. Goedecker, D.R. Hamann, P. Hermet, F. Jollet, G. Jomard, S. Leroux, M. Mancini, S. Mazevet,
- M.J.T. Oliveira, G. Onida, Y. Pouillon, T. Rangel, G.-M. Rignanese, D. Sangalli, R. Shaltaf,
- M. Torrent, M.J. Verstraete, G. Zerah, J.W. Zwanziger
- Comment : the third generic paper describing the ABINIT project.
- Note that a version of this paper, that is not formatted for Computer Phys. Comm. 
- is available at https://www.abinit.org/about/ABINIT_CPC_v10.pdf .
- The licence allows the authors to put it on the Web.
-
- [3] A brief introduction to the ABINIT software package.
- Z. Kristallogr. 220, 558-562 (2005).
- X. Gonze, G.-M. Rignanese, M. Verstraete, J.-M. Beuken, Y. Pouillon, R. Caracas, F. Jollet,
- M. Torrent, G. Zerah, M. Mikami, Ph. Ghosez, M. Veithen, J.-Y. Raty, V. Olevano, F. Bruneval,
- L. Reining, R. Godby, G. Onida, D.R. Hamann, and D.C. Allan.
- Comment : the second generic paper describing the ABINIT project. Note that this paper
- should be cited especially if you are using the GW part of ABINIT, as several authors
- of this part are not in the list of authors of the first or third paper.
- The .pdf of the latter paper is available at https://www.abinit.org/about/zfk_0505-06_558-562.pdf.
- Note that it should not redistributed (Copyright by Oldenburg Wissenshaftverlag,
- the licence allows the authors to put it on the Web).
-
- And optionally:
-
- [4] First-principles computation of material properties : the ABINIT software project. 
- X. Gonze, J.-M. Beuken, R. Caracas, F. Detraux, M. Fuchs, G.-M. Rignanese, L. Sindic,
- M. Verstraete, G. Zerah, F. Jollet, M. Torrent, A. Roy, M. Mikami, Ph. Ghosez, J.-Y. Raty, D.C. Allan.
- Computational Materials Science 25, 478-492 (2002). http://dx.doi.org/10.1016/S0927-0256(02)00325-7
- Comment : the original paper describing the ABINIT project.
-
- Proc.   0 individual time (sec): cpu=      46908.2  wall=      46986.8

================================================================================

 Calculation completed.
.Delivered   3 WARNINGs and   4 COMMENTs to log file.
+Overall time at end (sec) : cpu=      46908.2  wall=      46986.8
